
Host: mediawiki.tifrh.res.in

Timers On : Mon Jan 16 12:32:17 2023
Timers Off: Mon Jan 16 12:32:21 2023

Wall Time:        4.67 seconds

                                                       Time (seconds)
Module                                       User      System        Wall        Calls

--------------------------------------------------------------------------------------

**************************************************************************************

Host: mediawiki.tifrh.res.in

Timers On : Mon Jan 16 12:32:22 2023
Timers Off: Mon Jan 16 12:32:25 2023

Wall Time:        3.57 seconds

                                                       Time (seconds)
Module                                       User      System        Wall        Calls

--------------------------------------------------------------------------------------

**************************************************************************************

Host: mediawiki.tifrh.res.in

Timers On : Mon Jan 16 12:58:52 2023
Timers Off: Mon Jan 16 12:58:57 2023

Wall Time:        4.94 seconds

                                                       Time (seconds)
Module                                       User      System        Wall        Calls

--------------------------------------------------------------------------------------

**************************************************************************************

Host: mediawiki.tifrh.res.in

Timers On : Mon Jan 16 12:58:57 2023
Timers Off: Mon Jan 16 12:59:02 2023

Wall Time:        4.80 seconds

                                                       Time (seconds)
Module                                       User      System        Wall        Calls

--------------------------------------------------------------------------------------

**************************************************************************************

Host: mediawiki.tifrh.res.in

Timers On : Mon Jan 16 13:32:34 2023
Timers Off: Mon Jan 16 13:32:40 2023

Wall Time:        6.03 seconds

                                                       Time (seconds)
Module                                       User      System        Wall        Calls

--------------------------------------------------------------------------------------

**************************************************************************************

Host: mediawiki.tifrh.res.in

Timers On : Mon Jan 16 13:32:40 2023
Timers Off: Mon Jan 16 13:32:46 2023

Wall Time:        5.59 seconds

                                                       Time (seconds)
Module                                       User      System        Wall        Calls

--------------------------------------------------------------------------------------

**************************************************************************************
