
Host: mediawiki.tifrh.res.in

Timers On : Thu Nov  3 19:18:26 2022
Timers Off: Thu Nov  3 19:20:48 2022

Wall Time:      141.88 seconds

                                                       Time (seconds)
Module                                       User      System        Wall        Calls

--------------------------------------------------------------------------------------

**************************************************************************************

Host: mediawiki.tifrh.res.in

Timers On : Thu Nov  3 19:20:48 2022
Timers Off: Thu Nov  3 19:23:09 2022

Wall Time:      141.42 seconds

                                                       Time (seconds)
Module                                       User      System        Wall        Calls

--------------------------------------------------------------------------------------

**************************************************************************************

Host: mediawiki.tifrh.res.in

Timers On : Sat Dec 31 15:59:33 2022
Timers Off: Sat Dec 31 16:00:21 2022

Wall Time:       48.26 seconds

                                                       Time (seconds)
Module                                       User      System        Wall        Calls

--------------------------------------------------------------------------------------

**************************************************************************************

Host: mediawiki.tifrh.res.in

Timers On : Sat Dec 31 16:00:21 2022
Timers Off: Sat Dec 31 16:00:56 2022

Wall Time:       35.06 seconds

                                                       Time (seconds)
Module                                       User      System        Wall        Calls

--------------------------------------------------------------------------------------

**************************************************************************************

Host: mediawiki.tifrh.res.in

Timers On : Sat Dec 31 16:21:44 2022
Timers Off: Sat Dec 31 16:23:39 2022

Wall Time:      115.09 seconds

                                                       Time (seconds)
Module                                       User      System        Wall        Calls

--------------------------------------------------------------------------------------

**************************************************************************************

Host: mediawiki.tifrh.res.in

Timers On : Sat Dec 31 16:23:40 2022
Timers Off: Sat Dec 31 16:25:36 2022

Wall Time:      116.15 seconds

                                                       Time (seconds)
Module                                       User      System        Wall        Calls

--------------------------------------------------------------------------------------

**************************************************************************************

Host: mediawiki.tifrh.res.in

Timers On : Sat Dec 31 21:17:49 2022
Timers Off: Sat Dec 31 21:19:52 2022

Wall Time:      123.56 seconds

                                                       Time (seconds)
Module                                       User      System        Wall        Calls

--------------------------------------------------------------------------------------

**************************************************************************************

Host: mediawiki.tifrh.res.in

Timers On : Sat Dec 31 21:19:53 2022
Timers Off: Sat Dec 31 21:21:49 2022

Wall Time:      116.59 seconds

                                                       Time (seconds)
Module                                       User      System        Wall        Calls

--------------------------------------------------------------------------------------

**************************************************************************************

Host: mediawiki.tifrh.res.in

Timers On : Tue Jan  3 19:34:46 2023
Timers Off: Tue Jan  3 19:34:46 2023

Wall Time:        0.48 seconds

                                                       Time (seconds)
Module                                       User      System        Wall        Calls

--------------------------------------------------------------------------------------

**************************************************************************************

Host: mediawiki.tifrh.res.in

Timers On : Tue Jan  3 19:34:47 2023
Timers Off: Tue Jan  3 19:34:47 2023

Wall Time:        0.48 seconds

                                                       Time (seconds)
Module                                       User      System        Wall        Calls

--------------------------------------------------------------------------------------

**************************************************************************************

Host: mediawiki.tifrh.res.in

Timers On : Tue Jan  3 19:59:34 2023
Timers Off: Tue Jan  3 20:00:21 2023

Wall Time:       46.87 seconds

                                                       Time (seconds)
Module                                       User      System        Wall        Calls

--------------------------------------------------------------------------------------

**************************************************************************************

Host: mediawiki.tifrh.res.in

Timers On : Tue Jan  3 20:00:21 2023
Timers Off: Tue Jan  3 20:00:59 2023

Wall Time:       38.31 seconds

                                                       Time (seconds)
Module                                       User      System        Wall        Calls

--------------------------------------------------------------------------------------

**************************************************************************************

Host: mediawiki.tifrh.res.in

Timers On : Tue Jan  3 22:28:51 2023
Timers Off: Tue Jan  3 22:31:01 2023

Wall Time:      129.88 seconds

                                                       Time (seconds)
Module                                       User      System        Wall        Calls

--------------------------------------------------------------------------------------

**************************************************************************************

Host: mediawiki.tifrh.res.in

Timers On : Tue Jan  3 22:31:01 2023
Timers Off: Tue Jan  3 22:33:07 2023

Wall Time:      125.98 seconds

                                                       Time (seconds)
Module                                       User      System        Wall        Calls

--------------------------------------------------------------------------------------

**************************************************************************************

Host: mediawiki.tifrh.res.in

Timers On : Wed Jan  4 02:06:40 2023
Timers Off: Wed Jan  4 02:08:51 2023

Wall Time:      130.25 seconds

                                                       Time (seconds)
Module                                       User      System        Wall        Calls

--------------------------------------------------------------------------------------

**************************************************************************************

Host: mediawiki.tifrh.res.in

Timers On : Wed Jan  4 02:08:51 2023
Timers Off: Wed Jan  4 02:11:00 2023

Wall Time:      129.34 seconds

                                                       Time (seconds)
Module                                       User      System        Wall        Calls

--------------------------------------------------------------------------------------

**************************************************************************************
