
Host: mediawiki.tifrh.res.in

Timers On : Sun Jan 29 10:23:52 2023
Timers Off: Sun Jan 29 10:24:29 2023

Wall Time:       36.52 seconds

                                                       Time (seconds)
Module                                       User      System        Wall        Calls

--------------------------------------------------------------------------------------

**************************************************************************************

Host: mediawiki.tifrh.res.in

Timers On : Sun Jan 29 10:24:29 2023
Timers Off: Sun Jan 29 10:24:56 2023

Wall Time:       26.73 seconds

                                                       Time (seconds)
Module                                       User      System        Wall        Calls

--------------------------------------------------------------------------------------

**************************************************************************************

Host: mediawiki.tifrh.res.in

Timers On : Sun Jan 29 10:24:56 2023
Timers Off: Sun Jan 29 10:26:35 2023

Wall Time:       98.84 seconds

                                                       Time (seconds)
Module                                       User      System        Wall        Calls

--------------------------------------------------------------------------------------

**************************************************************************************

Host: mediawiki.tifrh.res.in

Timers On : Sun Jan 29 10:26:35 2023
Timers Off: Sun Jan 29 10:28:15 2023

Wall Time:       99.45 seconds

                                                       Time (seconds)
Module                                       User      System        Wall        Calls

--------------------------------------------------------------------------------------

**************************************************************************************

Host: mediawiki.tifrh.res.in

Timers On : Sun Jan 29 10:28:15 2023
Timers Off: Sun Jan 29 10:29:49 2023

Wall Time:       93.29 seconds

                                                       Time (seconds)
Module                                       User      System        Wall        Calls

--------------------------------------------------------------------------------------

**************************************************************************************

Host: mediawiki.tifrh.res.in

Timers On : Sun Jan 29 10:29:49 2023
Timers Off: Sun Jan 29 10:31:25 2023

Wall Time:       96.08 seconds

                                                       Time (seconds)
Module                                       User      System        Wall        Calls

--------------------------------------------------------------------------------------

**************************************************************************************
