
Host: mediawiki.tifrh.res.in

Timers On : Mon Jan 16 12:43:31 2023
Timers Off: Mon Jan 16 12:44:18 2023

Wall Time:       47.18 seconds

                                                       Time (seconds)
Module                                       User      System        Wall        Calls

--------------------------------------------------------------------------------------

**************************************************************************************

Host: mediawiki.tifrh.res.in

Timers On : Mon Jan 16 12:44:19 2023
Timers Off: Mon Jan 16 12:44:56 2023

Wall Time:       37.84 seconds

                                                       Time (seconds)
Module                                       User      System        Wall        Calls

--------------------------------------------------------------------------------------

**************************************************************************************

Host: mediawiki.tifrh.res.in

Timers On : Mon Jan 16 13:25:25 2023
Timers Off: Mon Jan 16 13:27:35 2023

Wall Time:      130.46 seconds

                                                       Time (seconds)
Module                                       User      System        Wall        Calls

--------------------------------------------------------------------------------------

**************************************************************************************

Host: mediawiki.tifrh.res.in

Timers On : Mon Jan 16 13:27:36 2023
Timers Off: Mon Jan 16 13:29:45 2023

Wall Time:      129.61 seconds

                                                       Time (seconds)
Module                                       User      System        Wall        Calls

--------------------------------------------------------------------------------------

**************************************************************************************

Host: mediawiki.tifrh.res.in

Timers On : Mon Jan 16 14:03:22 2023
Timers Off: Mon Jan 16 14:05:36 2023

Wall Time:      134.49 seconds

                                                       Time (seconds)
Module                                       User      System        Wall        Calls

--------------------------------------------------------------------------------------

**************************************************************************************

Host: mediawiki.tifrh.res.in

Timers On : Mon Jan 16 14:05:36 2023
Timers Off: Mon Jan 16 14:07:46 2023

Wall Time:      129.61 seconds

                                                       Time (seconds)
Module                                       User      System        Wall        Calls

--------------------------------------------------------------------------------------

**************************************************************************************
