
Host: mediawiki.tifrh.res.in

Timers On : Mon Jan 16 12:30:36 2023
Timers Off: Mon Jan 16 12:30:41 2023

Wall Time:        4.96 seconds

                                                       Time (seconds)
Module                                       User      System        Wall        Calls

--------------------------------------------------------------------------------------

**************************************************************************************

Host: mediawiki.tifrh.res.in

Timers On : Mon Jan 16 12:30:41 2023
Timers Off: Mon Jan 16 12:30:46 2023

Wall Time:        4.80 seconds

                                                       Time (seconds)
Module                                       User      System        Wall        Calls

--------------------------------------------------------------------------------------

**************************************************************************************

Host: mediawiki.tifrh.res.in

Timers On : Mon Jan 16 12:32:08 2023
Timers Off: Mon Jan 16 12:32:12 2023

Wall Time:        4.47 seconds

                                                       Time (seconds)
Module                                       User      System        Wall        Calls

--------------------------------------------------------------------------------------

**************************************************************************************

Host: mediawiki.tifrh.res.in

Timers On : Mon Jan 16 12:32:13 2023
Timers Off: Mon Jan 16 12:32:16 2023

Wall Time:        3.57 seconds

                                                       Time (seconds)
Module                                       User      System        Wall        Calls

--------------------------------------------------------------------------------------

**************************************************************************************

Host: mediawiki.tifrh.res.in

Timers On : Mon Jan 16 12:58:41 2023
Timers Off: Mon Jan 16 12:58:46 2023

Wall Time:        5.05 seconds

                                                       Time (seconds)
Module                                       User      System        Wall        Calls

--------------------------------------------------------------------------------------

**************************************************************************************

Host: mediawiki.tifrh.res.in

Timers On : Mon Jan 16 12:58:47 2023
Timers Off: Mon Jan 16 12:58:52 2023

Wall Time:        4.82 seconds

                                                       Time (seconds)
Module                                       User      System        Wall        Calls

--------------------------------------------------------------------------------------

**************************************************************************************

Host: mediawiki.tifrh.res.in

Timers On : Mon Jan 16 13:32:21 2023
Timers Off: Mon Jan 16 13:32:27 2023

Wall Time:        6.22 seconds

                                                       Time (seconds)
Module                                       User      System        Wall        Calls

--------------------------------------------------------------------------------------

**************************************************************************************

Host: mediawiki.tifrh.res.in

Timers On : Mon Jan 16 13:32:28 2023
Timers Off: Mon Jan 16 13:32:33 2023

Wall Time:        5.59 seconds

                                                       Time (seconds)
Module                                       User      System        Wall        Calls

--------------------------------------------------------------------------------------

**************************************************************************************
