
Host: mediawiki.tifrh.res.in

Timers On : Tue Dec 27 11:04:46 2022
Timers Off: Tue Dec 27 11:04:52 2022

Wall Time:        5.61 seconds

                                                       Time (seconds)
Module                                       User      System        Wall        Calls

--------------------------------------------------------------------------------------

**************************************************************************************

Host: mediawiki.tifrh.res.in

Timers On : Tue Dec 27 11:04:52 2022
Timers Off: Tue Dec 27 11:04:56 2022

Wall Time:        3.71 seconds

                                                       Time (seconds)
Module                                       User      System        Wall        Calls

--------------------------------------------------------------------------------------

**************************************************************************************

Host: mediawiki.tifrh.res.in

Timers On : Sat Dec 31 15:50:55 2022
Timers Off: Sat Dec 31 15:51:00 2022

Wall Time:        4.91 seconds

                                                       Time (seconds)
Module                                       User      System        Wall        Calls

--------------------------------------------------------------------------------------

**************************************************************************************

Host: mediawiki.tifrh.res.in

Timers On : Sat Dec 31 15:51:00 2022
Timers Off: Sat Dec 31 15:51:04 2022

Wall Time:        3.60 seconds

                                                       Time (seconds)
Module                                       User      System        Wall        Calls

--------------------------------------------------------------------------------------

**************************************************************************************

Host: mediawiki.tifrh.res.in

Timers On : Sat Dec 31 16:05:14 2022
Timers Off: Sat Dec 31 16:05:19 2022

Wall Time:        4.82 seconds

                                                       Time (seconds)
Module                                       User      System        Wall        Calls

--------------------------------------------------------------------------------------

**************************************************************************************

Host: mediawiki.tifrh.res.in

Timers On : Sat Dec 31 16:05:20 2022
Timers Off: Sat Dec 31 16:05:24 2022

Wall Time:        4.74 seconds

                                                       Time (seconds)
Module                                       User      System        Wall        Calls

--------------------------------------------------------------------------------------

**************************************************************************************

Host: mediawiki.tifrh.res.in

Timers On : Sat Dec 31 20:56:48 2022
Timers Off: Sat Dec 31 20:56:54 2022

Wall Time:        6.53 seconds

                                                       Time (seconds)
Module                                       User      System        Wall        Calls

--------------------------------------------------------------------------------------

**************************************************************************************

Host: mediawiki.tifrh.res.in

Timers On : Sat Dec 31 20:56:55 2022
Timers Off: Sat Dec 31 20:57:00 2022

Wall Time:        5.50 seconds

                                                       Time (seconds)
Module                                       User      System        Wall        Calls

--------------------------------------------------------------------------------------

**************************************************************************************

Host: mediawiki.tifrh.res.in

Timers On : Tue Jan  3 19:21:22 2023
Timers Off: Tue Jan  3 19:21:22 2023

Wall Time:        0.60 seconds

                                                       Time (seconds)
Module                                       User      System        Wall        Calls

--------------------------------------------------------------------------------------

**************************************************************************************

Host: mediawiki.tifrh.res.in

Timers On : Tue Jan  3 19:21:23 2023
Timers Off: Tue Jan  3 19:21:23 2023

Wall Time:        0.60 seconds

                                                       Time (seconds)
Module                                       User      System        Wall        Calls

--------------------------------------------------------------------------------------

**************************************************************************************

Host: mediawiki.tifrh.res.in

Timers On : Tue Jan  3 19:51:04 2023
Timers Off: Tue Jan  3 19:51:08 2023

Wall Time:        4.49 seconds

                                                       Time (seconds)
Module                                       User      System        Wall        Calls

--------------------------------------------------------------------------------------

**************************************************************************************

Host: mediawiki.tifrh.res.in

Timers On : Tue Jan  3 19:51:09 2023
Timers Off: Tue Jan  3 19:51:12 2023

Wall Time:        3.56 seconds

                                                       Time (seconds)
Module                                       User      System        Wall        Calls

--------------------------------------------------------------------------------------

**************************************************************************************

Host: mediawiki.tifrh.res.in

Timers On : Tue Jan  3 22:05:21 2023
Timers Off: Tue Jan  3 22:05:27 2023

Wall Time:        6.30 seconds

                                                       Time (seconds)
Module                                       User      System        Wall        Calls

--------------------------------------------------------------------------------------

**************************************************************************************

Host: mediawiki.tifrh.res.in

Timers On : Tue Jan  3 22:05:27 2023
Timers Off: Tue Jan  3 22:05:33 2023

Wall Time:        5.83 seconds

                                                       Time (seconds)
Module                                       User      System        Wall        Calls

--------------------------------------------------------------------------------------

**************************************************************************************

Host: mediawiki.tifrh.res.in

Timers On : Tue Jan  3 22:06:49 2023
Timers Off: Tue Jan  3 22:06:55 2023

Wall Time:        6.16 seconds

                                                       Time (seconds)
Module                                       User      System        Wall        Calls

--------------------------------------------------------------------------------------

**************************************************************************************

Host: mediawiki.tifrh.res.in

Timers On : Tue Jan  3 22:06:55 2023
Timers Off: Tue Jan  3 22:07:01 2023

Wall Time:        5.75 seconds

                                                       Time (seconds)
Module                                       User      System        Wall        Calls

--------------------------------------------------------------------------------------

**************************************************************************************

Host: mediawiki.tifrh.res.in

Timers On : Wed Jan  4 01:48:41 2023
Timers Off: Wed Jan  4 01:48:46 2023

Wall Time:        4.94 seconds

                                                       Time (seconds)
Module                                       User      System        Wall        Calls

--------------------------------------------------------------------------------------

**************************************************************************************

Host: mediawiki.tifrh.res.in

Timers On : Wed Jan  4 01:48:46 2023
Timers Off: Wed Jan  4 01:48:51 2023

Wall Time:        4.91 seconds

                                                       Time (seconds)
Module                                       User      System        Wall        Calls

--------------------------------------------------------------------------------------

**************************************************************************************
