
Host: mediawiki.tifrh.res.in

Timers On : Sat Dec 31 11:30:44 2022
Timers Off: Sat Dec 31 11:30:45 2022

Wall Time:        0.77 seconds

                                                       Time (seconds)
Module                                       User      System        Wall        Calls

--------------------------------------------------------------------------------------

**************************************************************************************

Host: mediawiki.tifrh.res.in

Timers On : Sat Dec 31 11:30:45 2022
Timers Off: Sat Dec 31 11:30:46 2022

Wall Time:        0.64 seconds

                                                       Time (seconds)
Module                                       User      System        Wall        Calls

--------------------------------------------------------------------------------------

**************************************************************************************

Host: mediawiki.tifrh.res.in

Timers On : Sat Dec 31 11:47:09 2022
Timers Off: Sat Dec 31 11:47:54 2022

Wall Time:       45.89 seconds

                                                       Time (seconds)
Module                                       User      System        Wall        Calls

--------------------------------------------------------------------------------------

**************************************************************************************

Host: mediawiki.tifrh.res.in

Timers On : Sat Dec 31 11:47:55 2022
Timers Off: Sat Dec 31 11:48:29 2022

Wall Time:       34.09 seconds

                                                       Time (seconds)
Module                                       User      System        Wall        Calls

--------------------------------------------------------------------------------------

**************************************************************************************

Host: mediawiki.tifrh.res.in

Timers On : Sat Dec 31 12:31:33 2022
Timers Off: Sat Dec 31 12:33:57 2022

Wall Time:      143.88 seconds

                                                       Time (seconds)
Module                                       User      System        Wall        Calls

--------------------------------------------------------------------------------------

**************************************************************************************

Host: mediawiki.tifrh.res.in

Timers On : Sat Dec 31 12:33:57 2022
Timers Off: Sat Dec 31 12:36:14 2022

Wall Time:      136.12 seconds

                                                       Time (seconds)
Module                                       User      System        Wall        Calls

--------------------------------------------------------------------------------------

**************************************************************************************

Host: mediawiki.tifrh.res.in

Timers On : Sat Dec 31 14:34:41 2022
Timers Off: Sat Dec 31 14:36:51 2022

Wall Time:      129.72 seconds

                                                       Time (seconds)
Module                                       User      System        Wall        Calls

--------------------------------------------------------------------------------------

**************************************************************************************

Host: mediawiki.tifrh.res.in

Timers On : Sat Dec 31 14:36:51 2022
Timers Off: Sat Dec 31 14:38:53 2022

Wall Time:      122.01 seconds

                                                       Time (seconds)
Module                                       User      System        Wall        Calls

--------------------------------------------------------------------------------------

**************************************************************************************

Host: mediawiki.tifrh.res.in

Timers On : Sat Dec 31 15:11:13 2022
Timers Off: Sat Dec 31 15:13:11 2022

Wall Time:      118.59 seconds

                                                       Time (seconds)
Module                                       User      System        Wall        Calls

--------------------------------------------------------------------------------------

**************************************************************************************

Host: mediawiki.tifrh.res.in

Timers On : Sat Dec 31 15:13:12 2022
Timers Off: Sat Dec 31 15:15:08 2022

Wall Time:      116.45 seconds

                                                       Time (seconds)
Module                                       User      System        Wall        Calls

--------------------------------------------------------------------------------------

**************************************************************************************

Host: mediawiki.tifrh.res.in

Timers On : Sat Dec 31 15:39:39 2022
Timers Off: Sat Dec 31 15:40:27 2022

Wall Time:       47.63 seconds

                                                       Time (seconds)
Module                                       User      System        Wall        Calls

--------------------------------------------------------------------------------------

**************************************************************************************

Host: mediawiki.tifrh.res.in

Timers On : Sat Dec 31 15:40:28 2022
Timers Off: Sat Dec 31 15:41:03 2022

Wall Time:       35.18 seconds

                                                       Time (seconds)
Module                                       User      System        Wall        Calls

--------------------------------------------------------------------------------------

**************************************************************************************

Host: mediawiki.tifrh.res.in

Timers On : Tue Jan  3 20:19:20 2023
Timers Off: Tue Jan  3 20:20:09 2023

Wall Time:       48.96 seconds

                                                       Time (seconds)
Module                                       User      System        Wall        Calls

--------------------------------------------------------------------------------------

**************************************************************************************

Host: mediawiki.tifrh.res.in

Timers On : Tue Jan  3 20:20:10 2023
Timers Off: Tue Jan  3 20:20:49 2023

Wall Time:       39.05 seconds

                                                       Time (seconds)
Module                                       User      System        Wall        Calls

--------------------------------------------------------------------------------------

**************************************************************************************

Host: mediawiki.tifrh.res.in

Timers On : Tue Jan  3 20:54:36 2023
Timers Off: Tue Jan  3 20:56:44 2023

Wall Time:      128.40 seconds

                                                       Time (seconds)
Module                                       User      System        Wall        Calls

--------------------------------------------------------------------------------------

**************************************************************************************

Host: mediawiki.tifrh.res.in

Timers On : Tue Jan  3 20:56:45 2023
Timers Off: Tue Jan  3 20:58:53 2023

Wall Time:      128.09 seconds

                                                       Time (seconds)
Module                                       User      System        Wall        Calls

--------------------------------------------------------------------------------------

**************************************************************************************

Host: mediawiki.tifrh.res.in

Timers On : Tue Jan  3 21:28:35 2023
Timers Off: Tue Jan  3 21:30:45 2023

Wall Time:      130.04 seconds

                                                       Time (seconds)
Module                                       User      System        Wall        Calls

--------------------------------------------------------------------------------------

**************************************************************************************

Host: mediawiki.tifrh.res.in

Timers On : Tue Jan  3 21:30:45 2023
Timers Off: Tue Jan  3 21:32:56 2023

Wall Time:      130.87 seconds

                                                       Time (seconds)
Module                                       User      System        Wall        Calls

--------------------------------------------------------------------------------------

**************************************************************************************
