
Host: jupiter

Timers On : Sun Jan 29 18:53:37 2023
Timers Off: Sun Jan 29 18:56:27 2023

Wall Time:      170.07 seconds

                                                       Time (seconds)
Module                                       User      System        Wall        Calls

--------------------------------------------------------------------------------------

**************************************************************************************

Host: jupiter

Timers On : Sun Jan 29 18:56:27 2023
Timers Off: Sun Jan 29 18:59:14 2023

Wall Time:      166.98 seconds

                                                       Time (seconds)
Module                                       User      System        Wall        Calls

--------------------------------------------------------------------------------------

**************************************************************************************

Host: jupiter

Timers On : Sun Jan 29 18:59:14 2023
Timers Off: Sun Jan 29 19:08:09 2023

Wall Time:      534.87 seconds

                                                       Time (seconds)
Module                                       User      System        Wall        Calls

--------------------------------------------------------------------------------------

**************************************************************************************

Host: jupiter

Timers On : Sun Jan 29 19:08:10 2023
Timers Off: Sun Jan 29 19:16:58 2023

Wall Time:      528.89 seconds

                                                       Time (seconds)
Module                                       User      System        Wall        Calls

--------------------------------------------------------------------------------------

**************************************************************************************

Host: jupiter

Timers On : Sun Jan 29 19:16:59 2023
Timers Off: Sun Jan 29 19:30:48 2023

Wall Time:      829.20 seconds

                                                       Time (seconds)
Module                                       User      System        Wall        Calls

--------------------------------------------------------------------------------------

**************************************************************************************

Host: jupiter

Timers On : Sun Jan 29 19:30:48 2023
Timers Off: Sun Jan 29 19:43:39 2023

Wall Time:      770.54 seconds

                                                       Time (seconds)
Module                                       User      System        Wall        Calls

--------------------------------------------------------------------------------------

**************************************************************************************
