
Host: mediawiki.tifrh.res.in

Timers On : Sat Dec 31 11:30:30 2022
Timers Off: Sat Dec 31 11:30:31 2022

Wall Time:        0.63 seconds

                                                       Time (seconds)
Module                                       User      System        Wall        Calls

--------------------------------------------------------------------------------------

**************************************************************************************

Host: mediawiki.tifrh.res.in

Timers On : Sat Dec 31 11:30:31 2022
Timers Off: Sat Dec 31 11:30:32 2022

Wall Time:        0.63 seconds

                                                       Time (seconds)
Module                                       User      System        Wall        Calls

--------------------------------------------------------------------------------------

**************************************************************************************

Host: mediawiki.tifrh.res.in

Timers On : Sat Dec 31 11:41:24 2022
Timers Off: Sat Dec 31 11:41:39 2022

Wall Time:       14.67 seconds

                                                       Time (seconds)
Module                                       User      System        Wall        Calls

--------------------------------------------------------------------------------------

**************************************************************************************

Host: mediawiki.tifrh.res.in

Timers On : Sat Dec 31 11:41:39 2022
Timers Off: Sat Dec 31 11:41:50 2022

Wall Time:       10.27 seconds

                                                       Time (seconds)
Module                                       User      System        Wall        Calls

--------------------------------------------------------------------------------------

**************************************************************************************

Host: mediawiki.tifrh.res.in

Timers On : Sat Dec 31 12:12:52 2022
Timers Off: Sat Dec 31 12:13:27 2022

Wall Time:       34.64 seconds

                                                       Time (seconds)
Module                                       User      System        Wall        Calls

--------------------------------------------------------------------------------------

**************************************************************************************

Host: mediawiki.tifrh.res.in

Timers On : Sat Dec 31 12:13:27 2022
Timers Off: Sat Dec 31 12:13:59 2022

Wall Time:       32.20 seconds

                                                       Time (seconds)
Module                                       User      System        Wall        Calls

--------------------------------------------------------------------------------------

**************************************************************************************

Host: mediawiki.tifrh.res.in

Timers On : Sat Dec 31 14:17:48 2022
Timers Off: Sat Dec 31 14:18:23 2022

Wall Time:       34.43 seconds

                                                       Time (seconds)
Module                                       User      System        Wall        Calls

--------------------------------------------------------------------------------------

**************************************************************************************

Host: mediawiki.tifrh.res.in

Timers On : Sat Dec 31 14:18:23 2022
Timers Off: Sat Dec 31 14:18:54 2022

Wall Time:       31.34 seconds

                                                       Time (seconds)
Module                                       User      System        Wall        Calls

--------------------------------------------------------------------------------------

**************************************************************************************

Host: mediawiki.tifrh.res.in

Timers On : Sat Dec 31 14:56:03 2022
Timers Off: Sat Dec 31 14:56:28 2022

Wall Time:       25.73 seconds

                                                       Time (seconds)
Module                                       User      System        Wall        Calls

--------------------------------------------------------------------------------------

**************************************************************************************

Host: mediawiki.tifrh.res.in

Timers On : Sat Dec 31 14:56:29 2022
Timers Off: Sat Dec 31 14:56:53 2022

Wall Time:       24.52 seconds

                                                       Time (seconds)
Module                                       User      System        Wall        Calls

--------------------------------------------------------------------------------------

**************************************************************************************

Host: mediawiki.tifrh.res.in

Timers On : Sat Dec 31 15:33:36 2022
Timers Off: Sat Dec 31 15:33:51 2022

Wall Time:       15.08 seconds

                                                       Time (seconds)
Module                                       User      System        Wall        Calls

--------------------------------------------------------------------------------------

**************************************************************************************

Host: mediawiki.tifrh.res.in

Timers On : Sat Dec 31 15:33:52 2022
Timers Off: Sat Dec 31 15:34:02 2022

Wall Time:       10.76 seconds

                                                       Time (seconds)
Module                                       User      System        Wall        Calls

--------------------------------------------------------------------------------------

**************************************************************************************

Host: mediawiki.tifrh.res.in

Timers On : Tue Jan  3 20:13:00 2023
Timers Off: Tue Jan  3 20:13:16 2023

Wall Time:       15.77 seconds

                                                       Time (seconds)
Module                                       User      System        Wall        Calls

--------------------------------------------------------------------------------------

**************************************************************************************

Host: mediawiki.tifrh.res.in

Timers On : Tue Jan  3 20:13:16 2023
Timers Off: Tue Jan  3 20:13:28 2023

Wall Time:       11.67 seconds

                                                       Time (seconds)
Module                                       User      System        Wall        Calls

--------------------------------------------------------------------------------------

**************************************************************************************

Host: mediawiki.tifrh.res.in

Timers On : Tue Jan  3 20:36:52 2023
Timers Off: Tue Jan  3 20:37:27 2023

Wall Time:       35.42 seconds

                                                       Time (seconds)
Module                                       User      System        Wall        Calls

--------------------------------------------------------------------------------------

**************************************************************************************

Host: mediawiki.tifrh.res.in

Timers On : Tue Jan  3 20:37:27 2023
Timers Off: Tue Jan  3 20:38:01 2023

Wall Time:       33.73 seconds

                                                       Time (seconds)
Module                                       User      System        Wall        Calls

--------------------------------------------------------------------------------------

**************************************************************************************

Host: mediawiki.tifrh.res.in

Timers On : Tue Jan  3 21:11:43 2023
Timers Off: Tue Jan  3 21:12:12 2023

Wall Time:       28.37 seconds

                                                       Time (seconds)
Module                                       User      System        Wall        Calls

--------------------------------------------------------------------------------------

**************************************************************************************

Host: mediawiki.tifrh.res.in

Timers On : Tue Jan  3 21:12:12 2023
Timers Off: Tue Jan  3 21:12:40 2023

Wall Time:       27.66 seconds

                                                       Time (seconds)
Module                                       User      System        Wall        Calls

--------------------------------------------------------------------------------------

**************************************************************************************
