
Host: jupiter

Timers On : Sun Jan 29 09:09:41 2023
Timers Off: Sun Jan 29 09:10:56 2023

Wall Time:       75.37 seconds

                                                       Time (seconds)
Module                                       User      System        Wall        Calls

--------------------------------------------------------------------------------------

**************************************************************************************

Host: jupiter

Timers On : Sun Jan 29 09:10:56 2023
Timers Off: Sun Jan 29 09:12:06 2023

Wall Time:       69.30 seconds

                                                       Time (seconds)
Module                                       User      System        Wall        Calls

--------------------------------------------------------------------------------------

**************************************************************************************

Host: jupiter

Timers On : Sun Jan 29 09:12:06 2023
Timers Off: Sun Jan 29 09:15:18 2023

Wall Time:      192.31 seconds

                                                       Time (seconds)
Module                                       User      System        Wall        Calls

--------------------------------------------------------------------------------------

**************************************************************************************

Host: jupiter

Timers On : Sun Jan 29 09:15:19 2023
Timers Off: Sun Jan 29 09:18:27 2023

Wall Time:      188.29 seconds

                                                       Time (seconds)
Module                                       User      System        Wall        Calls

--------------------------------------------------------------------------------------

**************************************************************************************

Host: jupiter

Timers On : Sun Jan 29 09:18:27 2023
Timers Off: Sun Jan 29 09:22:07 2023

Wall Time:      220.00 seconds

                                                       Time (seconds)
Module                                       User      System        Wall        Calls

--------------------------------------------------------------------------------------

**************************************************************************************

Host: jupiter

Timers On : Sun Jan 29 09:22:07 2023
Timers Off: Sun Jan 29 09:25:45 2023

Wall Time:      217.33 seconds

                                                       Time (seconds)
Module                                       User      System        Wall        Calls

--------------------------------------------------------------------------------------

**************************************************************************************
