
Host: jupiter

Timers On : Sun Jan 29 18:03:08 2023
Timers Off: Sun Jan 29 18:05:45 2023

Wall Time:      157.27 seconds

                                                       Time (seconds)
Module                                       User      System        Wall        Calls

--------------------------------------------------------------------------------------

**************************************************************************************

Host: jupiter

Timers On : Sun Jan 29 18:05:46 2023
Timers Off: Sun Jan 29 18:08:10 2023

Wall Time:      144.22 seconds

                                                       Time (seconds)
Module                                       User      System        Wall        Calls

--------------------------------------------------------------------------------------

**************************************************************************************

Host: jupiter

Timers On : Sun Jan 29 18:08:10 2023
Timers Off: Sun Jan 29 18:17:11 2023

Wall Time:      540.91 seconds

                                                       Time (seconds)
Module                                       User      System        Wall        Calls

--------------------------------------------------------------------------------------

**************************************************************************************

Host: jupiter

Timers On : Sun Jan 29 18:17:11 2023
Timers Off: Sun Jan 29 18:25:47 2023

Wall Time:      515.51 seconds

                                                       Time (seconds)
Module                                       User      System        Wall        Calls

--------------------------------------------------------------------------------------

**************************************************************************************

Host: jupiter

Timers On : Sun Jan 29 18:25:47 2023
Timers Off: Sun Jan 29 18:39:46 2023

Wall Time:      838.80 seconds

                                                       Time (seconds)
Module                                       User      System        Wall        Calls

--------------------------------------------------------------------------------------

**************************************************************************************

Host: jupiter

Timers On : Sun Jan 29 18:39:46 2023
Timers Off: Sun Jan 29 18:53:36 2023

Wall Time:      830.37 seconds

                                                       Time (seconds)
Module                                       User      System        Wall        Calls

--------------------------------------------------------------------------------------

**************************************************************************************
