
Host: mediawiki.tifrh.res.in

Timers On : Mon Jan 16 12:37:54 2023
Timers Off: Mon Jan 16 12:38:08 2023

Wall Time:       14.07 seconds

                                                       Time (seconds)
Module                                       User      System        Wall        Calls

--------------------------------------------------------------------------------------

**************************************************************************************

Host: mediawiki.tifrh.res.in

Timers On : Mon Jan 16 12:38:09 2023
Timers Off: Mon Jan 16 12:38:19 2023

Wall Time:       10.63 seconds

                                                       Time (seconds)
Module                                       User      System        Wall        Calls

--------------------------------------------------------------------------------------

**************************************************************************************

Host: mediawiki.tifrh.res.in

Timers On : Mon Jan 16 13:09:38 2023
Timers Off: Mon Jan 16 13:10:05 2023

Wall Time:       26.98 seconds

                                                       Time (seconds)
Module                                       User      System        Wall        Calls

--------------------------------------------------------------------------------------

**************************************************************************************

Host: mediawiki.tifrh.res.in

Timers On : Mon Jan 16 13:10:05 2023
Timers Off: Mon Jan 16 13:10:32 2023

Wall Time:       26.24 seconds

                                                       Time (seconds)
Module                                       User      System        Wall        Calls

--------------------------------------------------------------------------------------

**************************************************************************************

Host: mediawiki.tifrh.res.in

Timers On : Mon Jan 16 13:46:45 2023
Timers Off: Mon Jan 16 13:47:20 2023

Wall Time:       35.19 seconds

                                                       Time (seconds)
Module                                       User      System        Wall        Calls

--------------------------------------------------------------------------------------

**************************************************************************************

Host: mediawiki.tifrh.res.in

Timers On : Mon Jan 16 13:47:20 2023
Timers Off: Mon Jan 16 13:47:54 2023

Wall Time:       33.79 seconds

                                                       Time (seconds)
Module                                       User      System        Wall        Calls

--------------------------------------------------------------------------------------

**************************************************************************************
