
Host: jupiter

Timers On : Sun Jan 29 13:53:25 2023
Timers Off: Sun Jan 29 13:55:56 2023

Wall Time:      150.89 seconds

                                                       Time (seconds)
Module                                       User      System        Wall        Calls

--------------------------------------------------------------------------------------

**************************************************************************************

Host: jupiter

Timers On : Sun Jan 29 13:55:56 2023
Timers Off: Sun Jan 29 13:58:34 2023

Wall Time:      158.01 seconds

                                                       Time (seconds)
Module                                       User      System        Wall        Calls

--------------------------------------------------------------------------------------

**************************************************************************************

Host: jupiter

Timers On : Sun Jan 29 13:58:34 2023
Timers Off: Sun Jan 29 14:07:16 2023

Wall Time:      521.69 seconds

                                                       Time (seconds)
Module                                       User      System        Wall        Calls

--------------------------------------------------------------------------------------

**************************************************************************************

Host: jupiter

Timers On : Sun Jan 29 14:07:16 2023
Timers Off: Sun Jan 29 14:16:08 2023

Wall Time:      532.02 seconds

                                                       Time (seconds)
Module                                       User      System        Wall        Calls

--------------------------------------------------------------------------------------

**************************************************************************************

Host: jupiter

Timers On : Sun Jan 29 14:16:09 2023
Timers Off: Sun Jan 29 14:30:03 2023

Wall Time:      834.46 seconds

                                                       Time (seconds)
Module                                       User      System        Wall        Calls

--------------------------------------------------------------------------------------

**************************************************************************************

Host: jupiter

Timers On : Sun Jan 29 14:30:04 2023
Timers Off: Sun Jan 29 14:43:33 2023

Wall Time:      809.53 seconds

                                                       Time (seconds)
Module                                       User      System        Wall        Calls

--------------------------------------------------------------------------------------

**************************************************************************************
