
Host: mediawiki.tifrh.res.in

Timers On : Sat Dec 31 11:30:20 2022
Timers Off: Sat Dec 31 11:30:21 2022

Wall Time:        0.65 seconds

                                                       Time (seconds)
Module                                       User      System        Wall        Calls

--------------------------------------------------------------------------------------

**************************************************************************************

Host: mediawiki.tifrh.res.in

Timers On : Sat Dec 31 11:30:21 2022
Timers Off: Sat Dec 31 11:30:22 2022

Wall Time:        0.64 seconds

                                                       Time (seconds)
Module                                       User      System        Wall        Calls

--------------------------------------------------------------------------------------

**************************************************************************************

Host: mediawiki.tifrh.res.in

Timers On : Sat Dec 31 11:38:39 2022
Timers Off: Sat Dec 31 11:38:48 2022

Wall Time:        9.13 seconds

                                                       Time (seconds)
Module                                       User      System        Wall        Calls

--------------------------------------------------------------------------------------

**************************************************************************************

Host: mediawiki.tifrh.res.in

Timers On : Sat Dec 31 11:38:48 2022
Timers Off: Sat Dec 31 11:38:54 2022

Wall Time:        5.85 seconds

                                                       Time (seconds)
Module                                       User      System        Wall        Calls

--------------------------------------------------------------------------------------

**************************************************************************************

Host: mediawiki.tifrh.res.in

Timers On : Sat Dec 31 12:04:14 2022
Timers Off: Sat Dec 31 12:04:31 2022

Wall Time:       17.03 seconds

                                                       Time (seconds)
Module                                       User      System        Wall        Calls

--------------------------------------------------------------------------------------

**************************************************************************************

Host: mediawiki.tifrh.res.in

Timers On : Sat Dec 31 12:04:31 2022
Timers Off: Sat Dec 31 12:04:47 2022

Wall Time:       15.57 seconds

                                                       Time (seconds)
Module                                       User      System        Wall        Calls

--------------------------------------------------------------------------------------

**************************************************************************************

Host: mediawiki.tifrh.res.in

Timers On : Sat Dec 31 14:09:26 2022
Timers Off: Sat Dec 31 14:09:44 2022

Wall Time:       17.87 seconds

                                                       Time (seconds)
Module                                       User      System        Wall        Calls

--------------------------------------------------------------------------------------

**************************************************************************************

Host: mediawiki.tifrh.res.in

Timers On : Sat Dec 31 14:09:45 2022
Timers Off: Sat Dec 31 14:10:00 2022

Wall Time:       15.81 seconds

                                                       Time (seconds)
Module                                       User      System        Wall        Calls

--------------------------------------------------------------------------------------

**************************************************************************************

Host: mediawiki.tifrh.res.in

Timers On : Sat Dec 31 14:50:05 2022
Timers Off: Sat Dec 31 14:50:17 2022

Wall Time:       11.69 seconds

                                                       Time (seconds)
Module                                       User      System        Wall        Calls

--------------------------------------------------------------------------------------

**************************************************************************************

Host: mediawiki.tifrh.res.in

Timers On : Sat Dec 31 14:50:17 2022
Timers Off: Sat Dec 31 14:50:29 2022

Wall Time:       11.74 seconds

                                                       Time (seconds)
Module                                       User      System        Wall        Calls

--------------------------------------------------------------------------------------

**************************************************************************************

Host: mediawiki.tifrh.res.in

Timers On : Sat Dec 31 15:30:41 2022
Timers Off: Sat Dec 31 15:30:51 2022

Wall Time:       10.35 seconds

                                                       Time (seconds)
Module                                       User      System        Wall        Calls

--------------------------------------------------------------------------------------

**************************************************************************************

Host: mediawiki.tifrh.res.in

Timers On : Sat Dec 31 15:30:51 2022
Timers Off: Sat Dec 31 15:30:58 2022

Wall Time:        6.74 seconds

                                                       Time (seconds)
Module                                       User      System        Wall        Calls

--------------------------------------------------------------------------------------

**************************************************************************************

Host: mediawiki.tifrh.res.in

Timers On : Tue Jan  3 20:10:07 2023
Timers Off: Tue Jan  3 20:10:17 2023

Wall Time:        9.97 seconds

                                                       Time (seconds)
Module                                       User      System        Wall        Calls

--------------------------------------------------------------------------------------

**************************************************************************************

Host: mediawiki.tifrh.res.in

Timers On : Tue Jan  3 20:10:17 2023
Timers Off: Tue Jan  3 20:10:24 2023

Wall Time:        7.03 seconds

                                                       Time (seconds)
Module                                       User      System        Wall        Calls

--------------------------------------------------------------------------------------

**************************************************************************************

Host: mediawiki.tifrh.res.in

Timers On : Tue Jan  3 20:28:03 2023
Timers Off: Tue Jan  3 20:28:21 2023

Wall Time:       18.19 seconds

                                                       Time (seconds)
Module                                       User      System        Wall        Calls

--------------------------------------------------------------------------------------

**************************************************************************************

Host: mediawiki.tifrh.res.in

Timers On : Tue Jan  3 20:28:22 2023
Timers Off: Tue Jan  3 20:28:38 2023

Wall Time:       16.77 seconds

                                                       Time (seconds)
Module                                       User      System        Wall        Calls

--------------------------------------------------------------------------------------

**************************************************************************************

Host: mediawiki.tifrh.res.in

Timers On : Tue Jan  3 21:05:04 2023
Timers Off: Tue Jan  3 21:05:17 2023

Wall Time:       12.92 seconds

                                                       Time (seconds)
Module                                       User      System        Wall        Calls

--------------------------------------------------------------------------------------

**************************************************************************************

Host: mediawiki.tifrh.res.in

Timers On : Tue Jan  3 21:05:18 2023
Timers Off: Tue Jan  3 21:05:30 2023

Wall Time:       12.67 seconds

                                                       Time (seconds)
Module                                       User      System        Wall        Calls

--------------------------------------------------------------------------------------

**************************************************************************************
