
Host: mediawiki.tifrh.res.in

Timers On : Sat Dec 31 15:52:37 2022
Timers Off: Sat Dec 31 15:52:43 2022

Wall Time:        5.74 seconds

                                                       Time (seconds)
Module                                       User      System        Wall        Calls

--------------------------------------------------------------------------------------

**************************************************************************************

Host: mediawiki.tifrh.res.in

Timers On : Sat Dec 31 15:52:43 2022
Timers Off: Sat Dec 31 15:52:48 2022

Wall Time:        4.36 seconds

                                                       Time (seconds)
Module                                       User      System        Wall        Calls

--------------------------------------------------------------------------------------

**************************************************************************************

Host: mediawiki.tifrh.res.in

Timers On : Sat Dec 31 16:07:16 2022
Timers Off: Sat Dec 31 16:07:23 2022

Wall Time:        6.85 seconds

                                                       Time (seconds)
Module                                       User      System        Wall        Calls

--------------------------------------------------------------------------------------

**************************************************************************************

Host: mediawiki.tifrh.res.in

Timers On : Sat Dec 31 16:07:23 2022
Timers Off: Sat Dec 31 16:07:30 2022

Wall Time:        6.53 seconds

                                                       Time (seconds)
Module                                       User      System        Wall        Calls

--------------------------------------------------------------------------------------

**************************************************************************************

Host: mediawiki.tifrh.res.in

Timers On : Sat Dec 31 20:59:18 2022
Timers Off: Sat Dec 31 20:59:28 2022

Wall Time:        9.85 seconds

                                                       Time (seconds)
Module                                       User      System        Wall        Calls

--------------------------------------------------------------------------------------

**************************************************************************************

Host: mediawiki.tifrh.res.in

Timers On : Sat Dec 31 20:59:28 2022
Timers Off: Sat Dec 31 20:59:37 2022

Wall Time:        8.92 seconds

                                                       Time (seconds)
Module                                       User      System        Wall        Calls

--------------------------------------------------------------------------------------

**************************************************************************************

Host: mediawiki.tifrh.res.in

Timers On : Tue Jan  3 19:25:54 2023
Timers Off: Tue Jan  3 19:25:54 2023

Wall Time:        0.49 seconds

                                                       Time (seconds)
Module                                       User      System        Wall        Calls

--------------------------------------------------------------------------------------

**************************************************************************************

Host: mediawiki.tifrh.res.in

Timers On : Tue Jan  3 19:25:54 2023
Timers Off: Tue Jan  3 19:25:55 2023

Wall Time:        0.60 seconds

                                                       Time (seconds)
Module                                       User      System        Wall        Calls

--------------------------------------------------------------------------------------

**************************************************************************************

Host: mediawiki.tifrh.res.in

Timers On : Tue Jan  3 19:52:41 2023
Timers Off: Tue Jan  3 19:52:46 2023

Wall Time:        5.34 seconds

                                                       Time (seconds)
Module                                       User      System        Wall        Calls

--------------------------------------------------------------------------------------

**************************************************************************************

Host: mediawiki.tifrh.res.in

Timers On : Tue Jan  3 19:52:46 2023
Timers Off: Tue Jan  3 19:52:51 2023

Wall Time:        4.34 seconds

                                                       Time (seconds)
Module                                       User      System        Wall        Calls

--------------------------------------------------------------------------------------

**************************************************************************************

Host: mediawiki.tifrh.res.in

Timers On : Tue Jan  3 22:09:22 2023
Timers Off: Tue Jan  3 22:09:32 2023

Wall Time:        9.97 seconds

                                                       Time (seconds)
Module                                       User      System        Wall        Calls

--------------------------------------------------------------------------------------

**************************************************************************************

Host: mediawiki.tifrh.res.in

Timers On : Tue Jan  3 22:09:33 2023
Timers Off: Tue Jan  3 22:09:42 2023

Wall Time:        9.39 seconds

                                                       Time (seconds)
Module                                       User      System        Wall        Calls

--------------------------------------------------------------------------------------

**************************************************************************************

Host: mediawiki.tifrh.res.in

Timers On : Wed Jan  4 01:50:44 2023
Timers Off: Wed Jan  4 01:50:52 2023

Wall Time:        7.40 seconds

                                                       Time (seconds)
Module                                       User      System        Wall        Calls

--------------------------------------------------------------------------------------

**************************************************************************************

Host: mediawiki.tifrh.res.in

Timers On : Wed Jan  4 01:50:52 2023
Timers Off: Wed Jan  4 01:50:59 2023

Wall Time:        7.02 seconds

                                                       Time (seconds)
Module                                       User      System        Wall        Calls

--------------------------------------------------------------------------------------

**************************************************************************************
