
Host: mediawiki.tifrh.res.in

Timers On : Mon Jan 16 12:36:14 2023
Timers Off: Mon Jan 16 12:36:35 2023

Wall Time:       20.58 seconds

                                                       Time (seconds)
Module                                       User      System        Wall        Calls

--------------------------------------------------------------------------------------

**************************************************************************************

Host: mediawiki.tifrh.res.in

Timers On : Mon Jan 16 12:36:35 2023
Timers Off: Mon Jan 16 12:36:49 2023

Wall Time:       14.57 seconds

                                                       Time (seconds)
Module                                       User      System        Wall        Calls

--------------------------------------------------------------------------------------

**************************************************************************************

Host: mediawiki.tifrh.res.in

Timers On : Mon Jan 16 13:05:42 2023
Timers Off: Mon Jan 16 13:06:26 2023

Wall Time:       44.89 seconds

                                                       Time (seconds)
Module                                       User      System        Wall        Calls

--------------------------------------------------------------------------------------

**************************************************************************************

Host: mediawiki.tifrh.res.in

Timers On : Mon Jan 16 13:06:27 2023
Timers Off: Mon Jan 16 13:07:12 2023

Wall Time:       45.02 seconds

                                                       Time (seconds)
Module                                       User      System        Wall        Calls

--------------------------------------------------------------------------------------

**************************************************************************************

Host: mediawiki.tifrh.res.in

Timers On : Mon Jan 16 13:41:28 2023
Timers Off: Mon Jan 16 13:42:30 2023

Wall Time:       62.39 seconds

                                                       Time (seconds)
Module                                       User      System        Wall        Calls

--------------------------------------------------------------------------------------

**************************************************************************************

Host: mediawiki.tifrh.res.in

Timers On : Mon Jan 16 13:42:31 2023
Timers Off: Mon Jan 16 13:43:30 2023

Wall Time:       59.47 seconds

                                                       Time (seconds)
Module                                       User      System        Wall        Calls

--------------------------------------------------------------------------------------

**************************************************************************************
