
Host: mediawiki.tifrh.res.in

Timers On : Mon Jan 16 12:33:57 2023
Timers Off: Mon Jan 16 12:34:06 2023

Wall Time:        9.11 seconds

                                                       Time (seconds)
Module                                       User      System        Wall        Calls

--------------------------------------------------------------------------------------

**************************************************************************************

Host: mediawiki.tifrh.res.in

Timers On : Mon Jan 16 12:34:07 2023
Timers Off: Mon Jan 16 12:34:13 2023

Wall Time:        6.01 seconds

                                                       Time (seconds)
Module                                       User      System        Wall        Calls

--------------------------------------------------------------------------------------

**************************************************************************************

Host: mediawiki.tifrh.res.in

Timers On : Mon Jan 16 13:01:01 2023
Timers Off: Mon Jan 16 13:01:13 2023

Wall Time:       12.03 seconds

                                                       Time (seconds)
Module                                       User      System        Wall        Calls

--------------------------------------------------------------------------------------

**************************************************************************************

Host: mediawiki.tifrh.res.in

Timers On : Mon Jan 16 13:01:13 2023
Timers Off: Mon Jan 16 13:01:25 2023

Wall Time:       11.61 seconds

                                                       Time (seconds)
Module                                       User      System        Wall        Calls

--------------------------------------------------------------------------------------

**************************************************************************************

Host: mediawiki.tifrh.res.in

Timers On : Mon Jan 16 13:35:14 2023
Timers Off: Mon Jan 16 13:35:29 2023

Wall Time:       14.40 seconds

                                                       Time (seconds)
Module                                       User      System        Wall        Calls

--------------------------------------------------------------------------------------

**************************************************************************************

Host: mediawiki.tifrh.res.in

Timers On : Mon Jan 16 13:35:29 2023
Timers Off: Mon Jan 16 13:35:44 2023

Wall Time:       14.98 seconds

                                                       Time (seconds)
Module                                       User      System        Wall        Calls

--------------------------------------------------------------------------------------

**************************************************************************************
