
Host: mediawiki.tifrh.res.in

Timers On : Mon Jan 16 12:34:44 2023
Timers Off: Mon Jan 16 12:34:53 2023

Wall Time:        8.66 seconds

                                                       Time (seconds)
Module                                       User      System        Wall        Calls

--------------------------------------------------------------------------------------

**************************************************************************************

Host: mediawiki.tifrh.res.in

Timers On : Mon Jan 16 12:34:53 2023
Timers Off: Mon Jan 16 12:34:59 2023

Wall Time:        6.01 seconds

                                                       Time (seconds)
Module                                       User      System        Wall        Calls

--------------------------------------------------------------------------------------

**************************************************************************************

Host: mediawiki.tifrh.res.in

Timers On : Mon Jan 16 13:02:14 2023
Timers Off: Mon Jan 16 13:02:26 2023

Wall Time:       11.83 seconds

                                                       Time (seconds)
Module                                       User      System        Wall        Calls

--------------------------------------------------------------------------------------

**************************************************************************************

Host: mediawiki.tifrh.res.in

Timers On : Mon Jan 16 13:02:26 2023
Timers Off: Mon Jan 16 13:02:38 2023

Wall Time:       11.63 seconds

                                                       Time (seconds)
Module                                       User      System        Wall        Calls

--------------------------------------------------------------------------------------

**************************************************************************************

Host: mediawiki.tifrh.res.in

Timers On : Mon Jan 16 13:36:51 2023
Timers Off: Mon Jan 16 13:37:08 2023

Wall Time:       17.07 seconds

                                                       Time (seconds)
Module                                       User      System        Wall        Calls

--------------------------------------------------------------------------------------

**************************************************************************************

Host: mediawiki.tifrh.res.in

Timers On : Mon Jan 16 13:37:09 2023
Timers Off: Mon Jan 16 13:37:24 2023

Wall Time:       15.50 seconds

                                                       Time (seconds)
Module                                       User      System        Wall        Calls

--------------------------------------------------------------------------------------

**************************************************************************************
