
Host: mediawiki.tifrh.res.in

Timers On : Tue Dec 27 11:03:38 2022
Timers Off: Tue Dec 27 11:03:41 2022

Wall Time:        3.39 seconds

                                                       Time (seconds)
Module                                       User      System        Wall        Calls

--------------------------------------------------------------------------------------

**************************************************************************************

Host: mediawiki.tifrh.res.in

Timers On : Tue Dec 27 11:03:41 2022
Timers Off: Tue Dec 27 11:03:44 2022

Wall Time:        3.16 seconds

                                                       Time (seconds)
Module                                       User      System        Wall        Calls

--------------------------------------------------------------------------------------

**************************************************************************************

Host: mediawiki.tifrh.res.in

Timers On : Tue Dec 27 11:20:51 2022
Timers Off: Tue Dec 27 11:20:55 2022

Wall Time:        3.74 seconds

                                                       Time (seconds)
Module                                       User      System        Wall        Calls

--------------------------------------------------------------------------------------

**************************************************************************************

Host: mediawiki.tifrh.res.in

Timers On : Tue Dec 27 11:20:55 2022
Timers Off: Tue Dec 27 11:20:58 2022

Wall Time:        3.15 seconds

                                                       Time (seconds)
Module                                       User      System        Wall        Calls

--------------------------------------------------------------------------------------

**************************************************************************************

Host: mediawiki.tifrh.res.in

Timers On : Sat Dec 31 15:51:48 2022
Timers Off: Sat Dec 31 15:51:51 2022

Wall Time:        3.21 seconds

                                                       Time (seconds)
Module                                       User      System        Wall        Calls

--------------------------------------------------------------------------------------

**************************************************************************************

Host: mediawiki.tifrh.res.in

Timers On : Sat Dec 31 15:51:52 2022
Timers Off: Sat Dec 31 15:51:55 2022

Wall Time:        3.26 seconds

                                                       Time (seconds)
Module                                       User      System        Wall        Calls

--------------------------------------------------------------------------------------

**************************************************************************************

Host: mediawiki.tifrh.res.in

Timers On : Sat Dec 31 16:06:14 2022
Timers Off: Sat Dec 31 16:06:18 2022

Wall Time:        4.32 seconds

                                                       Time (seconds)
Module                                       User      System        Wall        Calls

--------------------------------------------------------------------------------------

**************************************************************************************

Host: mediawiki.tifrh.res.in

Timers On : Sat Dec 31 16:06:19 2022
Timers Off: Sat Dec 31 16:06:22 2022

Wall Time:        3.82 seconds

                                                       Time (seconds)
Module                                       User      System        Wall        Calls

--------------------------------------------------------------------------------------

**************************************************************************************

Host: mediawiki.tifrh.res.in

Timers On : Sat Dec 31 20:57:59 2022
Timers Off: Sat Dec 31 20:58:04 2022

Wall Time:        4.60 seconds

                                                       Time (seconds)
Module                                       User      System        Wall        Calls

--------------------------------------------------------------------------------------

**************************************************************************************

Host: mediawiki.tifrh.res.in

Timers On : Sat Dec 31 20:58:04 2022
Timers Off: Sat Dec 31 20:58:09 2022

Wall Time:        4.53 seconds

                                                       Time (seconds)
Module                                       User      System        Wall        Calls

--------------------------------------------------------------------------------------

**************************************************************************************

Host: mediawiki.tifrh.res.in

Timers On : Tue Jan  3 19:23:38 2023
Timers Off: Tue Jan  3 19:23:39 2023

Wall Time:        0.48 seconds

                                                       Time (seconds)
Module                                       User      System        Wall        Calls

--------------------------------------------------------------------------------------

**************************************************************************************

Host: mediawiki.tifrh.res.in

Timers On : Tue Jan  3 19:23:39 2023
Timers Off: Tue Jan  3 19:23:40 2023

Wall Time:        0.48 seconds

                                                       Time (seconds)
Module                                       User      System        Wall        Calls

--------------------------------------------------------------------------------------

**************************************************************************************

Host: mediawiki.tifrh.res.in

Timers On : Tue Jan  3 19:51:54 2023
Timers Off: Tue Jan  3 19:51:58 2023

Wall Time:        3.42 seconds

                                                       Time (seconds)
Module                                       User      System        Wall        Calls

--------------------------------------------------------------------------------------

**************************************************************************************

Host: mediawiki.tifrh.res.in

Timers On : Tue Jan  3 19:51:58 2023
Timers Off: Tue Jan  3 19:52:02 2023

Wall Time:        3.32 seconds

                                                       Time (seconds)
Module                                       User      System        Wall        Calls

--------------------------------------------------------------------------------------

**************************************************************************************

Host: mediawiki.tifrh.res.in

Timers On : Tue Jan  3 22:08:02 2023
Timers Off: Tue Jan  3 22:08:06 2023

Wall Time:        4.62 seconds

                                                       Time (seconds)
Module                                       User      System        Wall        Calls

--------------------------------------------------------------------------------------

**************************************************************************************

Host: mediawiki.tifrh.res.in

Timers On : Tue Jan  3 22:08:07 2023
Timers Off: Tue Jan  3 22:08:12 2023

Wall Time:        4.62 seconds

                                                       Time (seconds)
Module                                       User      System        Wall        Calls

--------------------------------------------------------------------------------------

**************************************************************************************

Host: mediawiki.tifrh.res.in

Timers On : Wed Jan  4 01:49:42 2023
Timers Off: Wed Jan  4 01:49:45 2023

Wall Time:        3.92 seconds

                                                       Time (seconds)
Module                                       User      System        Wall        Calls

--------------------------------------------------------------------------------------

**************************************************************************************

Host: mediawiki.tifrh.res.in

Timers On : Wed Jan  4 01:49:46 2023
Timers Off: Wed Jan  4 01:49:50 2023

Wall Time:        4.17 seconds

                                                       Time (seconds)
Module                                       User      System        Wall        Calls

--------------------------------------------------------------------------------------

**************************************************************************************
