
Host: mediawiki.tifrh.res.in

Timers On : Mon Jan 16 12:36:50 2023
Timers Off: Mon Jan 16 12:37:11 2023

Wall Time:       21.38 seconds

                                                       Time (seconds)
Module                                       User      System        Wall        Calls

--------------------------------------------------------------------------------------

**************************************************************************************

Host: mediawiki.tifrh.res.in

Timers On : Mon Jan 16 12:37:12 2023
Timers Off: Mon Jan 16 12:37:26 2023

Wall Time:       14.79 seconds

                                                       Time (seconds)
Module                                       User      System        Wall        Calls

--------------------------------------------------------------------------------------

**************************************************************************************

Host: mediawiki.tifrh.res.in

Timers On : Mon Jan 16 13:07:12 2023
Timers Off: Mon Jan 16 13:07:57 2023

Wall Time:       45.09 seconds

                                                       Time (seconds)
Module                                       User      System        Wall        Calls

--------------------------------------------------------------------------------------

**************************************************************************************

Host: mediawiki.tifrh.res.in

Timers On : Mon Jan 16 13:07:58 2023
Timers Off: Mon Jan 16 13:08:42 2023

Wall Time:       44.67 seconds

                                                       Time (seconds)
Module                                       User      System        Wall        Calls

--------------------------------------------------------------------------------------

**************************************************************************************

Host: mediawiki.tifrh.res.in

Timers On : Mon Jan 16 13:43:30 2023
Timers Off: Mon Jan 16 13:44:34 2023

Wall Time:       63.58 seconds

                                                       Time (seconds)
Module                                       User      System        Wall        Calls

--------------------------------------------------------------------------------------

**************************************************************************************

Host: mediawiki.tifrh.res.in

Timers On : Mon Jan 16 13:44:34 2023
Timers Off: Mon Jan 16 13:45:34 2023

Wall Time:       59.57 seconds

                                                       Time (seconds)
Module                                       User      System        Wall        Calls

--------------------------------------------------------------------------------------

**************************************************************************************
