
Host: mediawiki.tifrh.res.in

Timers On : Mon Jan 16 12:39:12 2023
Timers Off: Mon Jan 16 12:40:01 2023

Wall Time:       48.61 seconds

                                                       Time (seconds)
Module                                       User      System        Wall        Calls

--------------------------------------------------------------------------------------

**************************************************************************************

Host: mediawiki.tifrh.res.in

Timers On : Mon Jan 16 12:40:01 2023
Timers Off: Mon Jan 16 12:40:39 2023

Wall Time:       38.22 seconds

                                                       Time (seconds)
Module                                       User      System        Wall        Calls

--------------------------------------------------------------------------------------

**************************************************************************************

Host: mediawiki.tifrh.res.in

Timers On : Mon Jan 16 13:12:22 2023
Timers Off: Mon Jan 16 13:14:33 2023

Wall Time:      131.04 seconds

                                                       Time (seconds)
Module                                       User      System        Wall        Calls

--------------------------------------------------------------------------------------

**************************************************************************************

Host: mediawiki.tifrh.res.in

Timers On : Mon Jan 16 13:14:33 2023
Timers Off: Mon Jan 16 13:16:43 2023

Wall Time:      129.96 seconds

                                                       Time (seconds)
Module                                       User      System        Wall        Calls

--------------------------------------------------------------------------------------

**************************************************************************************

Host: mediawiki.tifrh.res.in

Timers On : Mon Jan 16 13:50:16 2023
Timers Off: Mon Jan 16 13:52:31 2023

Wall Time:      134.49 seconds

                                                       Time (seconds)
Module                                       User      System        Wall        Calls

--------------------------------------------------------------------------------------

**************************************************************************************

Host: mediawiki.tifrh.res.in

Timers On : Mon Jan 16 13:52:31 2023
Timers Off: Mon Jan 16 13:54:34 2023

Wall Time:      122.84 seconds

                                                       Time (seconds)
Module                                       User      System        Wall        Calls

--------------------------------------------------------------------------------------

**************************************************************************************
