
Host: jupiter

Timers On : Sun Jan 29 09:58:07 2023
Timers Off: Sun Jan 29 09:59:33 2023

Wall Time:       86.53 seconds

                                                       Time (seconds)
Module                                       User      System        Wall        Calls

--------------------------------------------------------------------------------------

**************************************************************************************

Host: jupiter

Timers On : Sun Jan 29 09:59:34 2023
Timers Off: Sun Jan 29 10:00:40 2023

Wall Time:       66.36 seconds

                                                       Time (seconds)
Module                                       User      System        Wall        Calls

--------------------------------------------------------------------------------------

**************************************************************************************

Host: jupiter

Timers On : Sun Jan 29 10:00:40 2023
Timers Off: Sun Jan 29 10:03:48 2023

Wall Time:      187.51 seconds

                                                       Time (seconds)
Module                                       User      System        Wall        Calls

--------------------------------------------------------------------------------------

**************************************************************************************

Host: jupiter

Timers On : Sun Jan 29 10:03:48 2023
Timers Off: Sun Jan 29 10:06:53 2023

Wall Time:      184.47 seconds

                                                       Time (seconds)
Module                                       User      System        Wall        Calls

--------------------------------------------------------------------------------------

**************************************************************************************

Host: jupiter

Timers On : Sun Jan 29 10:06:53 2023
Timers Off: Sun Jan 29 10:10:32 2023

Wall Time:      219.26 seconds

                                                       Time (seconds)
Module                                       User      System        Wall        Calls

--------------------------------------------------------------------------------------

**************************************************************************************

Host: jupiter

Timers On : Sun Jan 29 10:10:32 2023
Timers Off: Sun Jan 29 10:14:12 2023

Wall Time:      219.58 seconds

                                                       Time (seconds)
Module                                       User      System        Wall        Calls

--------------------------------------------------------------------------------------

**************************************************************************************
