
Host: mediawiki.tifrh.res.in

Timers On : Mon Jan 16 12:42:05 2023
Timers Off: Mon Jan 16 12:42:52 2023

Wall Time:       46.45 seconds

                                                       Time (seconds)
Module                                       User      System        Wall        Calls

--------------------------------------------------------------------------------------

**************************************************************************************

Host: mediawiki.tifrh.res.in

Timers On : Mon Jan 16 12:42:52 2023
Timers Off: Mon Jan 16 12:43:31 2023

Wall Time:       38.74 seconds

                                                       Time (seconds)
Module                                       User      System        Wall        Calls

--------------------------------------------------------------------------------------

**************************************************************************************

Host: mediawiki.tifrh.res.in

Timers On : Mon Jan 16 13:21:04 2023
Timers Off: Mon Jan 16 13:23:14 2023

Wall Time:      130.38 seconds

                                                       Time (seconds)
Module                                       User      System        Wall        Calls

--------------------------------------------------------------------------------------

**************************************************************************************

Host: mediawiki.tifrh.res.in

Timers On : Mon Jan 16 13:23:15 2023
Timers Off: Mon Jan 16 13:25:24 2023

Wall Time:      129.58 seconds

                                                       Time (seconds)
Module                                       User      System        Wall        Calls

--------------------------------------------------------------------------------------

**************************************************************************************

Host: mediawiki.tifrh.res.in

Timers On : Mon Jan 16 13:58:58 2023
Timers Off: Mon Jan 16 14:01:12 2023

Wall Time:      133.82 seconds

                                                       Time (seconds)
Module                                       User      System        Wall        Calls

--------------------------------------------------------------------------------------

**************************************************************************************

Host: mediawiki.tifrh.res.in

Timers On : Mon Jan 16 14:01:13 2023
Timers Off: Mon Jan 16 14:03:21 2023

Wall Time:      128.53 seconds

                                                       Time (seconds)
Module                                       User      System        Wall        Calls

--------------------------------------------------------------------------------------

**************************************************************************************
