
Host: mediawiki.tifrh.res.in

Timers On : Sun Jan 29 10:31:25 2023
Timers Off: Sun Jan 29 10:32:04 2023

Wall Time:       38.11 seconds

                                                       Time (seconds)
Module                                       User      System        Wall        Calls

--------------------------------------------------------------------------------------

**************************************************************************************

Host: mediawiki.tifrh.res.in

Timers On : Sun Jan 29 10:32:04 2023
Timers Off: Sun Jan 29 10:32:34 2023

Wall Time:       29.84 seconds

                                                       Time (seconds)
Module                                       User      System        Wall        Calls

--------------------------------------------------------------------------------------

**************************************************************************************

Host: mediawiki.tifrh.res.in

Timers On : Sun Jan 29 10:32:34 2023
Timers Off: Sun Jan 29 10:34:24 2023

Wall Time:      110.40 seconds

                                                       Time (seconds)
Module                                       User      System        Wall        Calls

--------------------------------------------------------------------------------------

**************************************************************************************

Host: mediawiki.tifrh.res.in

Timers On : Sun Jan 29 10:34:25 2023
Timers Off: Sun Jan 29 10:36:09 2023

Wall Time:      103.89 seconds

                                                       Time (seconds)
Module                                       User      System        Wall        Calls

--------------------------------------------------------------------------------------

**************************************************************************************

Host: mediawiki.tifrh.res.in

Timers On : Sun Jan 29 10:36:09 2023
Timers Off: Sun Jan 29 10:37:38 2023

Wall Time:       89.12 seconds

                                                       Time (seconds)
Module                                       User      System        Wall        Calls

--------------------------------------------------------------------------------------

**************************************************************************************

Host: mediawiki.tifrh.res.in

Timers On : Sun Jan 29 10:37:38 2023
Timers Off: Sun Jan 29 10:39:07 2023

Wall Time:       88.84 seconds

                                                       Time (seconds)
Module                                       User      System        Wall        Calls

--------------------------------------------------------------------------------------

**************************************************************************************
