
Host: mediawiki.tifrh.res.in

Timers On : Thu Nov  3 18:59:21 2022
Timers Off: Thu Nov  3 19:00:35 2022

Wall Time:       74.41 seconds

                                                       Time (seconds)
Module                                       User      System        Wall        Calls

--------------------------------------------------------------------------------------

**************************************************************************************

Host: mediawiki.tifrh.res.in

Timers On : Thu Nov  3 19:00:36 2022
Timers Off: Thu Nov  3 19:01:47 2022

Wall Time:       71.15 seconds

                                                       Time (seconds)
Module                                       User      System        Wall        Calls

--------------------------------------------------------------------------------------

**************************************************************************************

Host: mediawiki.tifrh.res.in

Timers On : Sat Dec 31 15:55:47 2022
Timers Off: Sat Dec 31 15:56:09 2022

Wall Time:       22.24 seconds

                                                       Time (seconds)
Module                                       User      System        Wall        Calls

--------------------------------------------------------------------------------------

**************************************************************************************

Host: mediawiki.tifrh.res.in

Timers On : Sat Dec 31 15:56:09 2022
Timers Off: Sat Dec 31 15:56:23 2022

Wall Time:       13.92 seconds

                                                       Time (seconds)
Module                                       User      System        Wall        Calls

--------------------------------------------------------------------------------------

**************************************************************************************

Host: mediawiki.tifrh.res.in

Timers On : Sat Dec 31 16:13:08 2022
Timers Off: Sat Dec 31 16:13:49 2022

Wall Time:       41.55 seconds

                                                       Time (seconds)
Module                                       User      System        Wall        Calls

--------------------------------------------------------------------------------------

**************************************************************************************

Host: mediawiki.tifrh.res.in

Timers On : Sat Dec 31 16:13:50 2022
Timers Off: Sat Dec 31 16:14:31 2022

Wall Time:       41.05 seconds

                                                       Time (seconds)
Module                                       User      System        Wall        Calls

--------------------------------------------------------------------------------------

**************************************************************************************

Host: mediawiki.tifrh.res.in

Timers On : Sat Dec 31 21:07:29 2022
Timers Off: Sat Dec 31 21:08:30 2022

Wall Time:       60.18 seconds

                                                       Time (seconds)
Module                                       User      System        Wall        Calls

--------------------------------------------------------------------------------------

**************************************************************************************

Host: mediawiki.tifrh.res.in

Timers On : Sat Dec 31 21:08:30 2022
Timers Off: Sat Dec 31 21:09:25 2022

Wall Time:       55.06 seconds

                                                       Time (seconds)
Module                                       User      System        Wall        Calls

--------------------------------------------------------------------------------------

**************************************************************************************

Host: mediawiki.tifrh.res.in

Timers On : Tue Jan  3 19:30:22 2023
Timers Off: Tue Jan  3 19:30:22 2023

Wall Time:        0.57 seconds

                                                       Time (seconds)
Module                                       User      System        Wall        Calls

--------------------------------------------------------------------------------------

**************************************************************************************

Host: mediawiki.tifrh.res.in

Timers On : Tue Jan  3 19:30:22 2023
Timers Off: Tue Jan  3 19:30:23 2023

Wall Time:        0.48 seconds

                                                       Time (seconds)
Module                                       User      System        Wall        Calls

--------------------------------------------------------------------------------------

**************************************************************************************

Host: mediawiki.tifrh.res.in

Timers On : Tue Jan  3 19:55:45 2023
Timers Off: Tue Jan  3 19:56:06 2023

Wall Time:       20.73 seconds

                                                       Time (seconds)
Module                                       User      System        Wall        Calls

--------------------------------------------------------------------------------------

**************************************************************************************

Host: mediawiki.tifrh.res.in

Timers On : Tue Jan  3 19:56:07 2023
Timers Off: Tue Jan  3 19:56:21 2023

Wall Time:       14.82 seconds

                                                       Time (seconds)
Module                                       User      System        Wall        Calls

--------------------------------------------------------------------------------------

**************************************************************************************

Host: mediawiki.tifrh.res.in

Timers On : Tue Jan  3 22:17:57 2023
Timers Off: Tue Jan  3 22:18:59 2023

Wall Time:       62.30 seconds

                                                       Time (seconds)
Module                                       User      System        Wall        Calls

--------------------------------------------------------------------------------------

**************************************************************************************

Host: mediawiki.tifrh.res.in

Timers On : Tue Jan  3 22:19:00 2023
Timers Off: Tue Jan  3 22:19:59 2023

Wall Time:       59.08 seconds

                                                       Time (seconds)
Module                                       User      System        Wall        Calls

--------------------------------------------------------------------------------------

**************************************************************************************

Host: mediawiki.tifrh.res.in

Timers On : Wed Jan  4 01:57:11 2023
Timers Off: Wed Jan  4 01:57:57 2023

Wall Time:       45.82 seconds

                                                       Time (seconds)
Module                                       User      System        Wall        Calls

--------------------------------------------------------------------------------------

**************************************************************************************

Host: mediawiki.tifrh.res.in

Timers On : Wed Jan  4 01:57:57 2023
Timers Off: Wed Jan  4 01:58:42 2023

Wall Time:       44.88 seconds

                                                       Time (seconds)
Module                                       User      System        Wall        Calls

--------------------------------------------------------------------------------------

**************************************************************************************
