
Host: mediawiki.tifrh.res.in

Timers On : Thu Nov  3 16:21:18 2022
Timers Off: Thu Nov  3 16:23:00 2022

Wall Time:      102.07 seconds

                                                       Time (seconds)
Module                                       User      System        Wall        Calls

--------------------------------------------------------------------------------------

**************************************************************************************

Host: mediawiki.tifrh.res.in

Timers On : Thu Nov  3 16:23:01 2022
Timers Off: Thu Nov  3 16:25:30 2022

Wall Time:      148.94 seconds

                                                       Time (seconds)
Module                                       User      System        Wall        Calls

--------------------------------------------------------------------------------------

**************************************************************************************

Host: mediawiki.tifrh.res.in

Timers On : Sat Dec 31 15:57:16 2022
Timers Off: Sat Dec 31 15:57:30 2022

Wall Time:       14.61 seconds

                                                       Time (seconds)
Module                                       User      System        Wall        Calls

--------------------------------------------------------------------------------------

**************************************************************************************

Host: mediawiki.tifrh.res.in

Timers On : Sat Dec 31 15:57:31 2022
Timers Off: Sat Dec 31 15:57:41 2022

Wall Time:       10.14 seconds

                                                       Time (seconds)
Module                                       User      System        Wall        Calls

--------------------------------------------------------------------------------------

**************************************************************************************

Host: mediawiki.tifrh.res.in

Timers On : Sat Dec 31 16:16:11 2022
Timers Off: Sat Dec 31 16:16:35 2022

Wall Time:       24.66 seconds

                                                       Time (seconds)
Module                                       User      System        Wall        Calls

--------------------------------------------------------------------------------------

**************************************************************************************

Host: mediawiki.tifrh.res.in

Timers On : Sat Dec 31 16:16:36 2022
Timers Off: Sat Dec 31 16:17:00 2022

Wall Time:       24.27 seconds

                                                       Time (seconds)
Module                                       User      System        Wall        Calls

--------------------------------------------------------------------------------------

**************************************************************************************

Host: mediawiki.tifrh.res.in

Timers On : Sat Dec 31 21:11:37 2022
Timers Off: Sat Dec 31 21:12:11 2022

Wall Time:       33.94 seconds

                                                       Time (seconds)
Module                                       User      System        Wall        Calls

--------------------------------------------------------------------------------------

**************************************************************************************

Host: mediawiki.tifrh.res.in

Timers On : Sat Dec 31 21:12:11 2022
Timers Off: Sat Dec 31 21:12:42 2022

Wall Time:       31.12 seconds

                                                       Time (seconds)
Module                                       User      System        Wall        Calls

--------------------------------------------------------------------------------------

**************************************************************************************

Host: mediawiki.tifrh.res.in

Timers On : Tue Jan  3 19:32:34 2023
Timers Off: Tue Jan  3 19:32:34 2023

Wall Time:        0.49 seconds

                                                       Time (seconds)
Module                                       User      System        Wall        Calls

--------------------------------------------------------------------------------------

**************************************************************************************

Host: mediawiki.tifrh.res.in

Timers On : Tue Jan  3 19:32:34 2023
Timers Off: Tue Jan  3 19:32:35 2023

Wall Time:        0.48 seconds

                                                       Time (seconds)
Module                                       User      System        Wall        Calls

--------------------------------------------------------------------------------------

**************************************************************************************

Host: mediawiki.tifrh.res.in

Timers On : Tue Jan  3 19:57:15 2023
Timers Off: Tue Jan  3 19:57:29 2023

Wall Time:       14.36 seconds

                                                       Time (seconds)
Module                                       User      System        Wall        Calls

--------------------------------------------------------------------------------------

**************************************************************************************

Host: mediawiki.tifrh.res.in

Timers On : Tue Jan  3 19:57:29 2023
Timers Off: Tue Jan  3 19:57:40 2023

Wall Time:       11.10 seconds

                                                       Time (seconds)
Module                                       User      System        Wall        Calls

--------------------------------------------------------------------------------------

**************************************************************************************

Host: mediawiki.tifrh.res.in

Timers On : Tue Jan  3 22:22:17 2023
Timers Off: Tue Jan  3 22:22:52 2023

Wall Time:       35.35 seconds

                                                       Time (seconds)
Module                                       User      System        Wall        Calls

--------------------------------------------------------------------------------------

**************************************************************************************

Host: mediawiki.tifrh.res.in

Timers On : Tue Jan  3 22:22:53 2023
Timers Off: Tue Jan  3 22:23:26 2023

Wall Time:       33.32 seconds

                                                       Time (seconds)
Module                                       User      System        Wall        Calls

--------------------------------------------------------------------------------------

**************************************************************************************

Host: mediawiki.tifrh.res.in

Timers On : Wed Jan  4 02:00:31 2023
Timers Off: Wed Jan  4 02:00:58 2023

Wall Time:       27.19 seconds

                                                       Time (seconds)
Module                                       User      System        Wall        Calls

--------------------------------------------------------------------------------------

**************************************************************************************

Host: mediawiki.tifrh.res.in

Timers On : Wed Jan  4 02:00:58 2023
Timers Off: Wed Jan  4 02:01:25 2023

Wall Time:       26.20 seconds

                                                       Time (seconds)
Module                                       User      System        Wall        Calls

--------------------------------------------------------------------------------------

**************************************************************************************
