
Host: jupiter

Timers On : Sun Jan 29 14:43:33 2023
Timers Off: Sun Jan 29 14:46:01 2023

Wall Time:      147.71 seconds

                                                       Time (seconds)
Module                                       User      System        Wall        Calls

--------------------------------------------------------------------------------------

**************************************************************************************

Host: jupiter

Timers On : Sun Jan 29 14:46:01 2023
Timers Off: Sun Jan 29 14:48:24 2023

Wall Time:      142.63 seconds

                                                       Time (seconds)
Module                                       User      System        Wall        Calls

--------------------------------------------------------------------------------------

**************************************************************************************

Host: jupiter

Timers On : Sun Jan 29 14:48:24 2023
Timers Off: Sun Jan 29 14:57:24 2023

Wall Time:      540.22 seconds

                                                       Time (seconds)
Module                                       User      System        Wall        Calls

--------------------------------------------------------------------------------------

**************************************************************************************

Host: jupiter

Timers On : Sun Jan 29 14:57:25 2023
Timers Off: Sun Jan 29 15:06:27 2023

Wall Time:      542.54 seconds

                                                       Time (seconds)
Module                                       User      System        Wall        Calls

--------------------------------------------------------------------------------------

**************************************************************************************

Host: jupiter

Timers On : Sun Jan 29 15:06:28 2023
Timers Off: Sun Jan 29 15:20:24 2023

Wall Time:      836.35 seconds

                                                       Time (seconds)
Module                                       User      System        Wall        Calls

--------------------------------------------------------------------------------------

**************************************************************************************

Host: jupiter

Timers On : Sun Jan 29 15:20:24 2023
Timers Off: Sun Jan 29 15:34:06 2023

Wall Time:      821.25 seconds

                                                       Time (seconds)
Module                                       User      System        Wall        Calls

--------------------------------------------------------------------------------------

**************************************************************************************
