
Host: mediawiki.tifrh.res.in

Timers On : Tue Dec 27 10:38:09 2022
Timers Off: Tue Dec 27 10:38:12 2022

Wall Time:        3.40 seconds

                                                       Time (seconds)
Module                                       User      System        Wall        Calls

--------------------------------------------------------------------------------------

**************************************************************************************

Host: mediawiki.tifrh.res.in

Timers On : Tue Dec 27 10:38:13 2022
Timers Off: Tue Dec 27 10:38:16 2022

Wall Time:        3.21 seconds

                                                       Time (seconds)
Module                                       User      System        Wall        Calls

--------------------------------------------------------------------------------------

**************************************************************************************

Host: mediawiki.tifrh.res.in

Timers On : Sat Dec 31 15:49:14 2022
Timers Off: Sat Dec 31 15:49:18 2022

Wall Time:        3.89 seconds

                                                       Time (seconds)
Module                                       User      System        Wall        Calls

--------------------------------------------------------------------------------------

**************************************************************************************

Host: mediawiki.tifrh.res.in

Timers On : Sat Dec 31 15:49:18 2022
Timers Off: Sat Dec 31 15:49:22 2022

Wall Time:        3.51 seconds

                                                       Time (seconds)
Module                                       User      System        Wall        Calls

--------------------------------------------------------------------------------------

**************************************************************************************

Host: mediawiki.tifrh.res.in

Timers On : Sat Dec 31 15:50:47 2022
Timers Off: Sat Dec 31 15:50:50 2022

Wall Time:        3.09 seconds

                                                       Time (seconds)
Module                                       User      System        Wall        Calls

--------------------------------------------------------------------------------------

**************************************************************************************

Host: mediawiki.tifrh.res.in

Timers On : Sat Dec 31 15:50:51 2022
Timers Off: Sat Dec 31 15:50:54 2022

Wall Time:        2.77 seconds

                                                       Time (seconds)
Module                                       User      System        Wall        Calls

--------------------------------------------------------------------------------------

**************************************************************************************

Host: mediawiki.tifrh.res.in

Timers On : Sat Dec 31 16:05:06 2022
Timers Off: Sat Dec 31 16:05:09 2022

Wall Time:        3.65 seconds

                                                       Time (seconds)
Module                                       User      System        Wall        Calls

--------------------------------------------------------------------------------------

**************************************************************************************

Host: mediawiki.tifrh.res.in

Timers On : Sat Dec 31 16:05:10 2022
Timers Off: Sat Dec 31 16:05:13 2022

Wall Time:        3.45 seconds

                                                       Time (seconds)
Module                                       User      System        Wall        Calls

--------------------------------------------------------------------------------------

**************************************************************************************

Host: mediawiki.tifrh.res.in

Timers On : Sat Dec 31 20:56:39 2022
Timers Off: Sat Dec 31 20:56:43 2022

Wall Time:        3.88 seconds

                                                       Time (seconds)
Module                                       User      System        Wall        Calls

--------------------------------------------------------------------------------------

**************************************************************************************

Host: mediawiki.tifrh.res.in

Timers On : Sat Dec 31 20:56:43 2022
Timers Off: Sat Dec 31 20:56:47 2022

Wall Time:        3.50 seconds

                                                       Time (seconds)
Module                                       User      System        Wall        Calls

--------------------------------------------------------------------------------------

**************************************************************************************

Host: mediawiki.tifrh.res.in

Timers On : Tue Jan  3 19:19:13 2023
Timers Off: Tue Jan  3 19:19:13 2023

Wall Time:        0.48 seconds

                                                       Time (seconds)
Module                                       User      System        Wall        Calls

--------------------------------------------------------------------------------------

**************************************************************************************

Host: mediawiki.tifrh.res.in

Timers On : Tue Jan  3 19:19:14 2023
Timers Off: Tue Jan  3 19:19:14 2023

Wall Time:        0.49 seconds

                                                       Time (seconds)
Module                                       User      System        Wall        Calls

--------------------------------------------------------------------------------------

**************************************************************************************

Host: mediawiki.tifrh.res.in

Timers On : Tue Jan  3 19:50:57 2023
Timers Off: Tue Jan  3 19:51:00 2023

Wall Time:        3.04 seconds

                                                       Time (seconds)
Module                                       User      System        Wall        Calls

--------------------------------------------------------------------------------------

**************************************************************************************

Host: mediawiki.tifrh.res.in

Timers On : Tue Jan  3 19:51:01 2023
Timers Off: Tue Jan  3 19:51:04 2023

Wall Time:        2.97 seconds

                                                       Time (seconds)
Module                                       User      System        Wall        Calls

--------------------------------------------------------------------------------------

**************************************************************************************

Host: mediawiki.tifrh.res.in

Timers On : Tue Jan  3 22:05:12 2023
Timers Off: Tue Jan  3 22:05:16 2023

Wall Time:        3.91 seconds

                                                       Time (seconds)
Module                                       User      System        Wall        Calls

--------------------------------------------------------------------------------------

**************************************************************************************

Host: mediawiki.tifrh.res.in

Timers On : Tue Jan  3 22:05:16 2023
Timers Off: Tue Jan  3 22:05:20 2023

Wall Time:        3.94 seconds

                                                       Time (seconds)
Module                                       User      System        Wall        Calls

--------------------------------------------------------------------------------------

**************************************************************************************

Host: mediawiki.tifrh.res.in

Timers On : Tue Jan  3 22:06:41 2023
Timers Off: Tue Jan  3 22:06:45 2023

Wall Time:        3.95 seconds

                                                       Time (seconds)
Module                                       User      System        Wall        Calls

--------------------------------------------------------------------------------------

**************************************************************************************

Host: mediawiki.tifrh.res.in

Timers On : Tue Jan  3 22:06:45 2023
Timers Off: Tue Jan  3 22:06:49 2023

Wall Time:        3.65 seconds

                                                       Time (seconds)
Module                                       User      System        Wall        Calls

--------------------------------------------------------------------------------------

**************************************************************************************

Host: mediawiki.tifrh.res.in

Timers On : Wed Jan  4 01:48:33 2023
Timers Off: Wed Jan  4 01:48:36 2023

Wall Time:        3.84 seconds

                                                       Time (seconds)
Module                                       User      System        Wall        Calls

--------------------------------------------------------------------------------------

**************************************************************************************

Host: mediawiki.tifrh.res.in

Timers On : Wed Jan  4 01:48:37 2023
Timers Off: Wed Jan  4 01:48:40 2023

Wall Time:        3.47 seconds

                                                       Time (seconds)
Module                                       User      System        Wall        Calls

--------------------------------------------------------------------------------------

**************************************************************************************
