
Host: mediawiki.tifrh.res.in

Timers On : Mon Jan 16 12:30:45 2023
Timers Off: Mon Jan 16 12:30:49 2023

Wall Time:        3.94 seconds

                                                       Time (seconds)
Module                                       User      System        Wall        Calls

--------------------------------------------------------------------------------------

**************************************************************************************

Host: mediawiki.tifrh.res.in

Timers On : Mon Jan 16 12:30:49 2023
Timers Off: Mon Jan 16 12:30:53 2023

Wall Time:        4.01 seconds

                                                       Time (seconds)
Module                                       User      System        Wall        Calls

--------------------------------------------------------------------------------------

**************************************************************************************

Host: mediawiki.tifrh.res.in

Timers On : Mon Jan 16 12:32:44 2023
Timers Off: Mon Jan 16 12:32:48 2023

Wall Time:        3.26 seconds

                                                       Time (seconds)
Module                                       User      System        Wall        Calls

--------------------------------------------------------------------------------------

**************************************************************************************

Host: mediawiki.tifrh.res.in

Timers On : Mon Jan 16 12:32:48 2023
Timers Off: Mon Jan 16 12:32:51 2023

Wall Time:        3.18 seconds

                                                       Time (seconds)
Module                                       User      System        Wall        Calls

--------------------------------------------------------------------------------------

**************************************************************************************

Host: mediawiki.tifrh.res.in

Timers On : Mon Jan 16 12:59:24 2023
Timers Off: Mon Jan 16 12:59:28 2023

Wall Time:        3.93 seconds

                                                       Time (seconds)
Module                                       User      System        Wall        Calls

--------------------------------------------------------------------------------------

**************************************************************************************

Host: mediawiki.tifrh.res.in

Timers On : Mon Jan 16 12:59:29 2023
Timers Off: Mon Jan 16 12:59:33 2023

Wall Time:        4.22 seconds

                                                       Time (seconds)
Module                                       User      System        Wall        Calls

--------------------------------------------------------------------------------------

**************************************************************************************

Host: mediawiki.tifrh.res.in

Timers On : Mon Jan 16 13:33:13 2023
Timers Off: Mon Jan 16 13:33:17 2023

Wall Time:        4.65 seconds

                                                       Time (seconds)
Module                                       User      System        Wall        Calls

--------------------------------------------------------------------------------------

**************************************************************************************

Host: mediawiki.tifrh.res.in

Timers On : Mon Jan 16 13:33:18 2023
Timers Off: Mon Jan 16 13:33:22 2023

Wall Time:        4.64 seconds

                                                       Time (seconds)
Module                                       User      System        Wall        Calls

--------------------------------------------------------------------------------------

**************************************************************************************
