
Host: mediawiki.tifrh.res.in

Timers On : Thu Nov  3 18:30:10 2022
Timers Off: Thu Nov  3 18:31:24 2022

Wall Time:       74.16 seconds

                                                       Time (seconds)
Module                                       User      System        Wall        Calls

--------------------------------------------------------------------------------------

**************************************************************************************

Host: mediawiki.tifrh.res.in

Timers On : Thu Nov  3 18:31:24 2022
Timers Off: Thu Nov  3 18:32:39 2022

Wall Time:       75.02 seconds

                                                       Time (seconds)
Module                                       User      System        Wall        Calls

--------------------------------------------------------------------------------------

**************************************************************************************

Host: mediawiki.tifrh.res.in

Timers On : Sat Dec 31 15:54:33 2022
Timers Off: Sat Dec 31 15:54:55 2022

Wall Time:       22.46 seconds

                                                       Time (seconds)
Module                                       User      System        Wall        Calls

--------------------------------------------------------------------------------------

**************************************************************************************

Host: mediawiki.tifrh.res.in

Timers On : Sat Dec 31 15:54:56 2022
Timers Off: Sat Dec 31 15:55:09 2022

Wall Time:       13.53 seconds

                                                       Time (seconds)
Module                                       User      System        Wall        Calls

--------------------------------------------------------------------------------------

**************************************************************************************

Host: mediawiki.tifrh.res.in

Timers On : Sat Dec 31 16:10:25 2022
Timers Off: Sat Dec 31 16:11:05 2022

Wall Time:       40.20 seconds

                                                       Time (seconds)
Module                                       User      System        Wall        Calls

--------------------------------------------------------------------------------------

**************************************************************************************

Host: mediawiki.tifrh.res.in

Timers On : Sat Dec 31 16:11:05 2022
Timers Off: Sat Dec 31 16:11:46 2022

Wall Time:       40.68 seconds

                                                       Time (seconds)
Module                                       User      System        Wall        Calls

--------------------------------------------------------------------------------------

**************************************************************************************

Host: mediawiki.tifrh.res.in

Timers On : Sat Dec 31 21:03:39 2022
Timers Off: Sat Dec 31 21:04:39 2022

Wall Time:       59.80 seconds

                                                       Time (seconds)
Module                                       User      System        Wall        Calls

--------------------------------------------------------------------------------------

**************************************************************************************

Host: mediawiki.tifrh.res.in

Timers On : Sat Dec 31 21:04:39 2022
Timers Off: Sat Dec 31 21:05:34 2022

Wall Time:       54.29 seconds

                                                       Time (seconds)
Module                                       User      System        Wall        Calls

--------------------------------------------------------------------------------------

**************************************************************************************

Host: mediawiki.tifrh.res.in

Timers On : Tue Jan  3 19:30:18 2023
Timers Off: Tue Jan  3 19:30:19 2023

Wall Time:        0.48 seconds

                                                       Time (seconds)
Module                                       User      System        Wall        Calls

--------------------------------------------------------------------------------------

**************************************************************************************

Host: mediawiki.tifrh.res.in

Timers On : Tue Jan  3 19:30:19 2023
Timers Off: Tue Jan  3 19:30:19 2023

Wall Time:        0.49 seconds

                                                       Time (seconds)
Module                                       User      System        Wall        Calls

--------------------------------------------------------------------------------------

**************************************************************************************

Host: mediawiki.tifrh.res.in

Timers On : Tue Jan  3 19:54:31 2023
Timers Off: Tue Jan  3 19:54:53 2023

Wall Time:       21.11 seconds

                                                       Time (seconds)
Module                                       User      System        Wall        Calls

--------------------------------------------------------------------------------------

**************************************************************************************

Host: mediawiki.tifrh.res.in

Timers On : Tue Jan  3 19:54:53 2023
Timers Off: Tue Jan  3 19:55:08 2023

Wall Time:       15.08 seconds

                                                       Time (seconds)
Module                                       User      System        Wall        Calls

--------------------------------------------------------------------------------------

**************************************************************************************

Host: mediawiki.tifrh.res.in

Timers On : Tue Jan  3 22:13:55 2023
Timers Off: Tue Jan  3 22:14:57 2023

Wall Time:       62.02 seconds

                                                       Time (seconds)
Module                                       User      System        Wall        Calls

--------------------------------------------------------------------------------------

**************************************************************************************

Host: mediawiki.tifrh.res.in

Timers On : Tue Jan  3 22:14:57 2023
Timers Off: Tue Jan  3 22:15:55 2023

Wall Time:       58.04 seconds

                                                       Time (seconds)
Module                                       User      System        Wall        Calls

--------------------------------------------------------------------------------------

**************************************************************************************

Host: mediawiki.tifrh.res.in

Timers On : Wed Jan  4 01:54:09 2023
Timers Off: Wed Jan  4 01:54:54 2023

Wall Time:       44.99 seconds

                                                       Time (seconds)
Module                                       User      System        Wall        Calls

--------------------------------------------------------------------------------------

**************************************************************************************

Host: mediawiki.tifrh.res.in

Timers On : Wed Jan  4 01:54:54 2023
Timers Off: Wed Jan  4 01:55:39 2023

Wall Time:       45.14 seconds

                                                       Time (seconds)
Module                                       User      System        Wall        Calls

--------------------------------------------------------------------------------------

**************************************************************************************
