
Host: mediawiki.tifrh.res.in

Timers On : Mon Jan 16 12:40:40 2023
Timers Off: Mon Jan 16 12:41:26 2023

Wall Time:       45.87 seconds

                                                       Time (seconds)
Module                                       User      System        Wall        Calls

--------------------------------------------------------------------------------------

**************************************************************************************

Host: mediawiki.tifrh.res.in

Timers On : Mon Jan 16 12:41:26 2023
Timers Off: Mon Jan 16 12:42:05 2023

Wall Time:       38.73 seconds

                                                       Time (seconds)
Module                                       User      System        Wall        Calls

--------------------------------------------------------------------------------------

**************************************************************************************

Host: mediawiki.tifrh.res.in

Timers On : Mon Jan 16 13:16:44 2023
Timers Off: Mon Jan 16 13:18:54 2023

Wall Time:      130.17 seconds

                                                       Time (seconds)
Module                                       User      System        Wall        Calls

--------------------------------------------------------------------------------------

**************************************************************************************

Host: mediawiki.tifrh.res.in

Timers On : Mon Jan 16 13:18:54 2023
Timers Off: Mon Jan 16 13:21:04 2023

Wall Time:      129.37 seconds

                                                       Time (seconds)
Module                                       User      System        Wall        Calls

--------------------------------------------------------------------------------------

**************************************************************************************

Host: mediawiki.tifrh.res.in

Timers On : Mon Jan 16 13:54:34 2023
Timers Off: Mon Jan 16 13:56:50 2023

Wall Time:      136.12 seconds

                                                       Time (seconds)
Module                                       User      System        Wall        Calls

--------------------------------------------------------------------------------------

**************************************************************************************

Host: mediawiki.tifrh.res.in

Timers On : Mon Jan 16 13:56:51 2023
Timers Off: Mon Jan 16 13:58:58 2023

Wall Time:      127.41 seconds

                                                       Time (seconds)
Module                                       User      System        Wall        Calls

--------------------------------------------------------------------------------------

**************************************************************************************
