
Host: jupiter

Timers On : Sun Jan 29 11:51:17 2023
Timers Off: Sun Jan 29 11:52:30 2023

Wall Time:       72.81 seconds

                                                       Time (seconds)
Module                                       User      System        Wall        Calls

--------------------------------------------------------------------------------------

**************************************************************************************

Host: jupiter

Timers On : Sun Jan 29 11:52:30 2023
Timers Off: Sun Jan 29 11:53:40 2023

Wall Time:       70.06 seconds

                                                       Time (seconds)
Module                                       User      System        Wall        Calls

--------------------------------------------------------------------------------------

**************************************************************************************

Host: jupiter

Timers On : Sun Jan 29 11:53:41 2023
Timers Off: Sun Jan 29 11:56:56 2023

Wall Time:      195.05 seconds

                                                       Time (seconds)
Module                                       User      System        Wall        Calls

--------------------------------------------------------------------------------------

**************************************************************************************

Host: jupiter

Timers On : Sun Jan 29 11:56:56 2023
Timers Off: Sun Jan 29 12:00:12 2023

Wall Time:      195.46 seconds

                                                       Time (seconds)
Module                                       User      System        Wall        Calls

--------------------------------------------------------------------------------------

**************************************************************************************

Host: jupiter

Timers On : Sun Jan 29 12:00:12 2023
Timers Off: Sun Jan 29 12:03:52 2023

Wall Time:      220.33 seconds

                                                       Time (seconds)
Module                                       User      System        Wall        Calls

--------------------------------------------------------------------------------------

**************************************************************************************

Host: jupiter

Timers On : Sun Jan 29 12:03:52 2023
Timers Off: Sun Jan 29 12:07:35 2023

Wall Time:      222.39 seconds

                                                       Time (seconds)
Module                                       User      System        Wall        Calls

--------------------------------------------------------------------------------------

**************************************************************************************
