
Host: mediawiki.tifrh.res.in

Timers On : Sun Jan 29 12:49:25 2023
Timers Off: Sun Jan 29 12:52:03 2023

Wall Time:      158.31 seconds

                                                       Time (seconds)
Module                                       User      System        Wall        Calls

--------------------------------------------------------------------------------------

**************************************************************************************

Host: mediawiki.tifrh.res.in

Timers On : Sun Jan 29 12:52:04 2023
Timers Off: Sun Jan 29 12:54:32 2023

Wall Time:      148.16 seconds

                                                       Time (seconds)
Module                                       User      System        Wall        Calls

--------------------------------------------------------------------------------------

**************************************************************************************

Host: mediawiki.tifrh.res.in

Timers On : Sun Jan 29 12:54:32 2023
Timers Off: Sun Jan 29 13:03:21 2023

Wall Time:      529.03 seconds

                                                       Time (seconds)
Module                                       User      System        Wall        Calls

--------------------------------------------------------------------------------------

**************************************************************************************

Host: mediawiki.tifrh.res.in

Timers On : Sun Jan 29 13:03:21 2023
Timers Off: Sun Jan 29 13:12:12 2023

Wall Time:      530.97 seconds

                                                       Time (seconds)
Module                                       User      System        Wall        Calls

--------------------------------------------------------------------------------------

**************************************************************************************

Host: mediawiki.tifrh.res.in

Timers On : Sun Jan 29 13:12:13 2023
Timers Off: Sun Jan 29 13:26:03 2023

Wall Time:      830.84 seconds

                                                       Time (seconds)
Module                                       User      System        Wall        Calls

--------------------------------------------------------------------------------------

**************************************************************************************

Host: mediawiki.tifrh.res.in

Timers On : Sun Jan 29 13:26:04 2023
Timers Off: Sun Jan 29 13:39:49 2023

Wall Time:      824.98 seconds

                                                       Time (seconds)
Module                                       User      System        Wall        Calls

--------------------------------------------------------------------------------------

**************************************************************************************
