
Host: jupiter

Timers On : Sun Jan 29 19:43:39 2023
Timers Off: Sun Jan 29 19:47:00 2023

Wall Time:      201.47 seconds

                                                       Time (seconds)
Module                                       User      System        Wall        Calls

--------------------------------------------------------------------------------------

**************************************************************************************

Host: jupiter

Timers On : Sun Jan 29 19:47:01 2023
Timers Off: Sun Jan 29 19:50:14 2023

Wall Time:      193.67 seconds

                                                       Time (seconds)
Module                                       User      System        Wall        Calls

--------------------------------------------------------------------------------------

**************************************************************************************

Host: jupiter

Timers On : Sun Jan 29 19:50:15 2023
Timers Off: Sun Jan 29 19:58:54 2023

Wall Time:      518.75 seconds

                                                       Time (seconds)
Module                                       User      System        Wall        Calls

--------------------------------------------------------------------------------------

**************************************************************************************

Host: jupiter

Timers On : Sun Jan 29 19:58:54 2023
Timers Off: Sun Jan 29 20:07:35 2023

Wall Time:      521.40 seconds

                                                       Time (seconds)
Module                                       User      System        Wall        Calls

--------------------------------------------------------------------------------------

**************************************************************************************

Host: jupiter

Timers On : Sun Jan 29 20:07:36 2023
Timers Off: Sun Jan 29 20:21:57 2023

Wall Time:      861.52 seconds

                                                       Time (seconds)
Module                                       User      System        Wall        Calls

--------------------------------------------------------------------------------------

**************************************************************************************

Host: jupiter

Timers On : Sun Jan 29 20:21:57 2023
Timers Off: Sun Jan 29 20:36:41 2023

Wall Time:      883.15 seconds

                                                       Time (seconds)
Module                                       User      System        Wall        Calls

--------------------------------------------------------------------------------------

**************************************************************************************
