
Host: mediawiki.tifrh.res.in

Timers On : Mon Jan 16 12:37:28 2023
Timers Off: Mon Jan 16 12:37:42 2023

Wall Time:       14.14 seconds

                                                       Time (seconds)
Module                                       User      System        Wall        Calls

--------------------------------------------------------------------------------------

**************************************************************************************

Host: mediawiki.tifrh.res.in

Timers On : Mon Jan 16 12:37:43 2023
Timers Off: Mon Jan 16 12:37:54 2023

Wall Time:       11.03 seconds

                                                       Time (seconds)
Module                                       User      System        Wall        Calls

--------------------------------------------------------------------------------------

**************************************************************************************

Host: mediawiki.tifrh.res.in

Timers On : Mon Jan 16 13:08:44 2023
Timers Off: Mon Jan 16 13:09:11 2023

Wall Time:       27.08 seconds

                                                       Time (seconds)
Module                                       User      System        Wall        Calls

--------------------------------------------------------------------------------------

**************************************************************************************

Host: mediawiki.tifrh.res.in

Timers On : Mon Jan 16 13:09:11 2023
Timers Off: Mon Jan 16 13:09:38 2023

Wall Time:       26.43 seconds

                                                       Time (seconds)
Module                                       User      System        Wall        Calls

--------------------------------------------------------------------------------------

**************************************************************************************

Host: mediawiki.tifrh.res.in

Timers On : Mon Jan 16 13:45:35 2023
Timers Off: Mon Jan 16 13:46:11 2023

Wall Time:       35.09 seconds

                                                       Time (seconds)
Module                                       User      System        Wall        Calls

--------------------------------------------------------------------------------------

**************************************************************************************

Host: mediawiki.tifrh.res.in

Timers On : Mon Jan 16 13:46:11 2023
Timers Off: Mon Jan 16 13:46:44 2023

Wall Time:       33.35 seconds

                                                       Time (seconds)
Module                                       User      System        Wall        Calls

--------------------------------------------------------------------------------------

**************************************************************************************
