
Host: mediawiki.tifrh.res.in

Timers On : Mon Nov 21 15:23:31 2022
Timers Off: Mon Nov 21 15:25:47 2022

Wall Time:      136.85 seconds

                                                       Time (seconds)
Module                                       User      System        Wall        Calls

--------------------------------------------------------------------------------------

**************************************************************************************

Host: mediawiki.tifrh.res.in

Timers On : Mon Nov 21 15:25:48 2022
Timers Off: Mon Nov 21 15:28:07 2022

Wall Time:      139.36 seconds

                                                       Time (seconds)
Module                                       User      System        Wall        Calls

--------------------------------------------------------------------------------------

**************************************************************************************

Host: mediawiki.tifrh.res.in

Timers On : Tue Nov 22 11:29:07 2022
Timers Off: Tue Nov 22 11:31:21 2022

Wall Time:      133.86 seconds

                                                       Time (seconds)
Module                                       User      System        Wall        Calls

--------------------------------------------------------------------------------------

**************************************************************************************

Host: mediawiki.tifrh.res.in

Timers On : Tue Nov 22 11:31:21 2022
Timers Off: Tue Nov 22 11:33:37 2022

Wall Time:      136.22 seconds

                                                       Time (seconds)
Module                                       User      System        Wall        Calls

--------------------------------------------------------------------------------------

**************************************************************************************

Host: mediawiki.tifrh.res.in

Timers On : Thu Jan  5 12:45:25 2023
Timers Off: Thu Jan  5 12:45:26 2023

Wall Time:        0.84 seconds

                                                       Time (seconds)
Module                                       User      System        Wall        Calls

--------------------------------------------------------------------------------------

**************************************************************************************

Host: mediawiki.tifrh.res.in

Timers On : Thu Jan  5 12:45:50 2023
Timers Off: Thu Jan  5 12:46:34 2023

Wall Time:       43.78 seconds

                                                       Time (seconds)
Module                                       User      System        Wall        Calls

--------------------------------------------------------------------------------------

**************************************************************************************

Host: mediawiki.tifrh.res.in

Timers On : Thu Jan  5 12:49:08 2023
Timers Off: Thu Jan  5 12:49:50 2023

Wall Time:       41.77 seconds

                                                       Time (seconds)
Module                                       User      System        Wall        Calls

--------------------------------------------------------------------------------------

**************************************************************************************

Host: mediawiki.tifrh.res.in

Timers On : Thu Jan 12 10:57:43 2023
Timers Off: Thu Jan 12 10:57:48 2023

Wall Time:        4.07 seconds

                                                       Time (seconds)
Module                                       User      System        Wall        Calls

--------------------------------------------------------------------------------------

**************************************************************************************

Host: mediawiki.tifrh.res.in

Timers On : Thu Jan 12 10:58:14 2023
Timers Off: Thu Jan 12 10:58:58 2023

Wall Time:       43.11 seconds

                                                       Time (seconds)
Module                                       User      System        Wall        Calls

--------------------------------------------------------------------------------------

**************************************************************************************

Host: mediawiki.tifrh.res.in

Timers On : Thu Jan 12 10:59:16 2023
Timers Off: Thu Jan 12 11:00:00 2023

Wall Time:       43.34 seconds

                                                       Time (seconds)
Module                                       User      System        Wall        Calls

--------------------------------------------------------------------------------------

**************************************************************************************
