
Host: mediawiki.tifrh.res.in

Timers On : Sun Jan 29 11:32:33 2023
Timers Off: Sun Jan 29 11:33:43 2023

Wall Time:       70.07 seconds

                                                       Time (seconds)
Module                                       User      System        Wall        Calls

--------------------------------------------------------------------------------------

**************************************************************************************

Host: mediawiki.tifrh.res.in

Timers On : Sun Jan 29 11:33:44 2023
Timers Off: Sun Jan 29 11:34:46 2023

Wall Time:       62.77 seconds

                                                       Time (seconds)
Module                                       User      System        Wall        Calls

--------------------------------------------------------------------------------------

**************************************************************************************

Host: mediawiki.tifrh.res.in

Timers On : Sun Jan 29 11:34:47 2023
Timers Off: Sun Jan 29 11:37:49 2023

Wall Time:      182.40 seconds

                                                       Time (seconds)
Module                                       User      System        Wall        Calls

--------------------------------------------------------------------------------------

**************************************************************************************

Host: mediawiki.tifrh.res.in

Timers On : Sun Jan 29 11:37:49 2023
Timers Off: Sun Jan 29 11:40:51 2023

Wall Time:      181.41 seconds

                                                       Time (seconds)
Module                                       User      System        Wall        Calls

--------------------------------------------------------------------------------------

**************************************************************************************

Host: mediawiki.tifrh.res.in

Timers On : Sun Jan 29 11:40:51 2023
Timers Off: Sun Jan 29 11:44:14 2023

Wall Time:      203.22 seconds

                                                       Time (seconds)
Module                                       User      System        Wall        Calls

--------------------------------------------------------------------------------------

**************************************************************************************

Host: mediawiki.tifrh.res.in

Timers On : Sun Jan 29 11:44:15 2023
Timers Off: Sun Jan 29 11:47:36 2023

Wall Time:      201.19 seconds

                                                       Time (seconds)
Module                                       User      System        Wall        Calls

--------------------------------------------------------------------------------------

**************************************************************************************
