
Host: jupiter

Timers On : Sun Jan 29 13:02:15 2023
Timers Off: Sun Jan 29 13:05:21 2023

Wall Time:      186.12 seconds

                                                       Time (seconds)
Module                                       User      System        Wall        Calls

--------------------------------------------------------------------------------------

**************************************************************************************

Host: jupiter

Timers On : Sun Jan 29 13:05:21 2023
Timers Off: Sun Jan 29 13:07:56 2023

Wall Time:      154.29 seconds

                                                       Time (seconds)
Module                                       User      System        Wall        Calls

--------------------------------------------------------------------------------------

**************************************************************************************

Host: jupiter

Timers On : Sun Jan 29 13:07:56 2023
Timers Off: Sun Jan 29 13:16:48 2023

Wall Time:      531.72 seconds

                                                       Time (seconds)
Module                                       User      System        Wall        Calls

--------------------------------------------------------------------------------------

**************************************************************************************

Host: jupiter

Timers On : Sun Jan 29 13:16:48 2023
Timers Off: Sun Jan 29 13:25:42 2023

Wall Time:      533.73 seconds

                                                       Time (seconds)
Module                                       User      System        Wall        Calls

--------------------------------------------------------------------------------------

**************************************************************************************

Host: jupiter

Timers On : Sun Jan 29 13:25:42 2023
Timers Off: Sun Jan 29 13:39:43 2023

Wall Time:      841.35 seconds

                                                       Time (seconds)
Module                                       User      System        Wall        Calls

--------------------------------------------------------------------------------------

**************************************************************************************

Host: jupiter

Timers On : Sun Jan 29 13:39:44 2023
Timers Off: Sun Jan 29 13:53:25 2023

Wall Time:      821.02 seconds

                                                       Time (seconds)
Module                                       User      System        Wall        Calls

--------------------------------------------------------------------------------------

**************************************************************************************
