
Host: mediawiki.tifrh.res.in

Timers On : Mon Jan 16 12:34:29 2023
Timers Off: Mon Jan 16 12:34:38 2023

Wall Time:        8.54 seconds

                                                       Time (seconds)
Module                                       User      System        Wall        Calls

--------------------------------------------------------------------------------------

**************************************************************************************

Host: mediawiki.tifrh.res.in

Timers On : Mon Jan 16 12:34:38 2023
Timers Off: Mon Jan 16 12:34:44 2023

Wall Time:        6.04 seconds

                                                       Time (seconds)
Module                                       User      System        Wall        Calls

--------------------------------------------------------------------------------------

**************************************************************************************

Host: mediawiki.tifrh.res.in

Timers On : Mon Jan 16 13:01:49 2023
Timers Off: Mon Jan 16 13:02:01 2023

Wall Time:       11.96 seconds

                                                       Time (seconds)
Module                                       User      System        Wall        Calls

--------------------------------------------------------------------------------------

**************************************************************************************

Host: mediawiki.tifrh.res.in

Timers On : Mon Jan 16 13:02:02 2023
Timers Off: Mon Jan 16 13:02:13 2023

Wall Time:       11.65 seconds

                                                       Time (seconds)
Module                                       User      System        Wall        Calls

--------------------------------------------------------------------------------------

**************************************************************************************

Host: mediawiki.tifrh.res.in

Timers On : Mon Jan 16 13:36:18 2023
Timers Off: Mon Jan 16 13:36:35 2023

Wall Time:       16.76 seconds

                                                       Time (seconds)
Module                                       User      System        Wall        Calls

--------------------------------------------------------------------------------------

**************************************************************************************

Host: mediawiki.tifrh.res.in

Timers On : Mon Jan 16 13:36:35 2023
Timers Off: Mon Jan 16 13:36:51 2023

Wall Time:       15.77 seconds

                                                       Time (seconds)
Module                                       User      System        Wall        Calls

--------------------------------------------------------------------------------------

**************************************************************************************
