
Host: jupiter

Timers On : Sun Jan 29 11:35:19 2023
Timers Off: Sun Jan 29 11:36:28 2023

Wall Time:       68.52 seconds

                                                       Time (seconds)
Module                                       User      System        Wall        Calls

--------------------------------------------------------------------------------------

**************************************************************************************

Host: jupiter

Timers On : Sun Jan 29 11:36:28 2023
Timers Off: Sun Jan 29 11:37:34 2023

Wall Time:       66.08 seconds

                                                       Time (seconds)
Module                                       User      System        Wall        Calls

--------------------------------------------------------------------------------------

**************************************************************************************

Host: jupiter

Timers On : Sun Jan 29 11:37:35 2023
Timers Off: Sun Jan 29 11:40:49 2023

Wall Time:      194.21 seconds

                                                       Time (seconds)
Module                                       User      System        Wall        Calls

--------------------------------------------------------------------------------------

**************************************************************************************

Host: jupiter

Timers On : Sun Jan 29 11:40:49 2023
Timers Off: Sun Jan 29 11:44:01 2023

Wall Time:      192.02 seconds

                                                       Time (seconds)
Module                                       User      System        Wall        Calls

--------------------------------------------------------------------------------------

**************************************************************************************

Host: jupiter

Timers On : Sun Jan 29 11:44:02 2023
Timers Off: Sun Jan 29 11:47:39 2023

Wall Time:      217.64 seconds

                                                       Time (seconds)
Module                                       User      System        Wall        Calls

--------------------------------------------------------------------------------------

**************************************************************************************

Host: jupiter

Timers On : Sun Jan 29 11:47:40 2023
Timers Off: Sun Jan 29 11:51:17 2023

Wall Time:      217.24 seconds

                                                       Time (seconds)
Module                                       User      System        Wall        Calls

--------------------------------------------------------------------------------------

**************************************************************************************
