
Host: mediawiki.tifrh.res.in

Timers On : Sat Dec 31 11:30:16 2022
Timers Off: Sat Dec 31 11:30:17 2022

Wall Time:        0.78 seconds

                                                       Time (seconds)
Module                                       User      System        Wall        Calls

--------------------------------------------------------------------------------------

**************************************************************************************

Host: mediawiki.tifrh.res.in

Timers On : Sat Dec 31 11:30:17 2022
Timers Off: Sat Dec 31 11:30:18 2022

Wall Time:        0.63 seconds

                                                       Time (seconds)
Module                                       User      System        Wall        Calls

--------------------------------------------------------------------------------------

**************************************************************************************

Host: mediawiki.tifrh.res.in

Timers On : Sat Dec 31 11:38:07 2022
Timers Off: Sat Dec 31 11:38:16 2022

Wall Time:        9.63 seconds

                                                       Time (seconds)
Module                                       User      System        Wall        Calls

--------------------------------------------------------------------------------------

**************************************************************************************

Host: mediawiki.tifrh.res.in

Timers On : Sat Dec 31 11:38:17 2022
Timers Off: Sat Dec 31 11:38:23 2022

Wall Time:        5.73 seconds

                                                       Time (seconds)
Module                                       User      System        Wall        Calls

--------------------------------------------------------------------------------------

**************************************************************************************

Host: mediawiki.tifrh.res.in

Timers On : Sat Dec 31 12:03:08 2022
Timers Off: Sat Dec 31 12:03:25 2022

Wall Time:       16.86 seconds

                                                       Time (seconds)
Module                                       User      System        Wall        Calls

--------------------------------------------------------------------------------------

**************************************************************************************

Host: mediawiki.tifrh.res.in

Timers On : Sat Dec 31 12:03:25 2022
Timers Off: Sat Dec 31 12:03:40 2022

Wall Time:       14.89 seconds

                                                       Time (seconds)
Module                                       User      System        Wall        Calls

--------------------------------------------------------------------------------------

**************************************************************************************

Host: mediawiki.tifrh.res.in

Timers On : Sat Dec 31 14:08:18 2022
Timers Off: Sat Dec 31 14:08:36 2022

Wall Time:       17.73 seconds

                                                       Time (seconds)
Module                                       User      System        Wall        Calls

--------------------------------------------------------------------------------------

**************************************************************************************

Host: mediawiki.tifrh.res.in

Timers On : Sat Dec 31 14:08:36 2022
Timers Off: Sat Dec 31 14:08:52 2022

Wall Time:       15.61 seconds

                                                       Time (seconds)
Module                                       User      System        Wall        Calls

--------------------------------------------------------------------------------------

**************************************************************************************

Host: mediawiki.tifrh.res.in

Timers On : Sat Dec 31 14:49:17 2022
Timers Off: Sat Dec 31 14:49:29 2022

Wall Time:       11.62 seconds

                                                       Time (seconds)
Module                                       User      System        Wall        Calls

--------------------------------------------------------------------------------------

**************************************************************************************

Host: mediawiki.tifrh.res.in

Timers On : Sat Dec 31 14:49:29 2022
Timers Off: Sat Dec 31 14:49:41 2022

Wall Time:       11.37 seconds

                                                       Time (seconds)
Module                                       User      System        Wall        Calls

--------------------------------------------------------------------------------------

**************************************************************************************

Host: mediawiki.tifrh.res.in

Timers On : Sat Dec 31 15:30:05 2022
Timers Off: Sat Dec 31 15:30:16 2022

Wall Time:       10.80 seconds

                                                       Time (seconds)
Module                                       User      System        Wall        Calls

--------------------------------------------------------------------------------------

**************************************************************************************

Host: mediawiki.tifrh.res.in

Timers On : Sat Dec 31 15:30:16 2022
Timers Off: Sat Dec 31 15:30:23 2022

Wall Time:        6.65 seconds

                                                       Time (seconds)
Module                                       User      System        Wall        Calls

--------------------------------------------------------------------------------------

**************************************************************************************

Host: mediawiki.tifrh.res.in

Timers On : Tue Jan  3 20:09:31 2023
Timers Off: Tue Jan  3 20:09:41 2023

Wall Time:       10.11 seconds

                                                       Time (seconds)
Module                                       User      System        Wall        Calls

--------------------------------------------------------------------------------------

**************************************************************************************

Host: mediawiki.tifrh.res.in

Timers On : Tue Jan  3 20:09:42 2023
Timers Off: Tue Jan  3 20:09:49 2023

Wall Time:        7.01 seconds

                                                       Time (seconds)
Module                                       User      System        Wall        Calls

--------------------------------------------------------------------------------------

**************************************************************************************

Host: mediawiki.tifrh.res.in

Timers On : Tue Jan  3 20:26:54 2023
Timers Off: Tue Jan  3 20:27:11 2023

Wall Time:       17.79 seconds

                                                       Time (seconds)
Module                                       User      System        Wall        Calls

--------------------------------------------------------------------------------------

**************************************************************************************

Host: mediawiki.tifrh.res.in

Timers On : Tue Jan  3 20:27:12 2023
Timers Off: Tue Jan  3 20:27:28 2023

Wall Time:       16.29 seconds

                                                       Time (seconds)
Module                                       User      System        Wall        Calls

--------------------------------------------------------------------------------------

**************************************************************************************

Host: mediawiki.tifrh.res.in

Timers On : Tue Jan  3 21:04:11 2023
Timers Off: Tue Jan  3 21:04:24 2023

Wall Time:       13.00 seconds

                                                       Time (seconds)
Module                                       User      System        Wall        Calls

--------------------------------------------------------------------------------------

**************************************************************************************

Host: mediawiki.tifrh.res.in

Timers On : Tue Jan  3 21:04:25 2023
Timers Off: Tue Jan  3 21:04:37 2023

Wall Time:       12.57 seconds

                                                       Time (seconds)
Module                                       User      System        Wall        Calls

--------------------------------------------------------------------------------------

**************************************************************************************
