
Host: mediawiki.tifrh.res.in

Timers On : Mon Jan 16 12:35:01 2023
Timers Off: Mon Jan 16 12:35:22 2023

Wall Time:       21.40 seconds

                                                       Time (seconds)
Module                                       User      System        Wall        Calls

--------------------------------------------------------------------------------------

**************************************************************************************

Host: mediawiki.tifrh.res.in

Timers On : Mon Jan 16 12:35:23 2023
Timers Off: Mon Jan 16 12:35:37 2023

Wall Time:       14.73 seconds

                                                       Time (seconds)
Module                                       User      System        Wall        Calls

--------------------------------------------------------------------------------------

**************************************************************************************

Host: mediawiki.tifrh.res.in

Timers On : Mon Jan 16 13:02:39 2023
Timers Off: Mon Jan 16 13:03:25 2023

Wall Time:       45.88 seconds

                                                       Time (seconds)
Module                                       User      System        Wall        Calls

--------------------------------------------------------------------------------------

**************************************************************************************

Host: mediawiki.tifrh.res.in

Timers On : Mon Jan 16 13:03:25 2023
Timers Off: Mon Jan 16 13:04:09 2023

Wall Time:       44.01 seconds

                                                       Time (seconds)
Module                                       User      System        Wall        Calls

--------------------------------------------------------------------------------------

**************************************************************************************

Host: mediawiki.tifrh.res.in

Timers On : Mon Jan 16 13:37:27 2023
Timers Off: Mon Jan 16 13:38:28 2023

Wall Time:       61.34 seconds

                                                       Time (seconds)
Module                                       User      System        Wall        Calls

--------------------------------------------------------------------------------------

**************************************************************************************

Host: mediawiki.tifrh.res.in

Timers On : Mon Jan 16 13:38:28 2023
Timers Off: Mon Jan 16 13:39:26 2023

Wall Time:       57.33 seconds

                                                       Time (seconds)
Module                                       User      System        Wall        Calls

--------------------------------------------------------------------------------------

**************************************************************************************
