
Host: mediawiki.tifrh.res.in

Timers On : Mon Jan 16 12:35:38 2023
Timers Off: Mon Jan 16 12:35:59 2023

Wall Time:       20.81 seconds

                                                       Time (seconds)
Module                                       User      System        Wall        Calls

--------------------------------------------------------------------------------------

**************************************************************************************

Host: mediawiki.tifrh.res.in

Timers On : Mon Jan 16 12:35:59 2023
Timers Off: Mon Jan 16 12:36:14 2023

Wall Time:       14.62 seconds

                                                       Time (seconds)
Module                                       User      System        Wall        Calls

--------------------------------------------------------------------------------------

**************************************************************************************

Host: mediawiki.tifrh.res.in

Timers On : Mon Jan 16 13:04:10 2023
Timers Off: Mon Jan 16 13:04:56 2023

Wall Time:       45.93 seconds

                                                       Time (seconds)
Module                                       User      System        Wall        Calls

--------------------------------------------------------------------------------------

**************************************************************************************

Host: mediawiki.tifrh.res.in

Timers On : Mon Jan 16 13:04:56 2023
Timers Off: Mon Jan 16 13:05:41 2023

Wall Time:       45.28 seconds

                                                       Time (seconds)
Module                                       User      System        Wall        Calls

--------------------------------------------------------------------------------------

**************************************************************************************

Host: mediawiki.tifrh.res.in

Timers On : Mon Jan 16 13:39:26 2023
Timers Off: Mon Jan 16 13:40:28 2023

Wall Time:       62.14 seconds

                                                       Time (seconds)
Module                                       User      System        Wall        Calls

--------------------------------------------------------------------------------------

**************************************************************************************

Host: mediawiki.tifrh.res.in

Timers On : Mon Jan 16 13:40:29 2023
Timers Off: Mon Jan 16 13:41:27 2023

Wall Time:       58.97 seconds

                                                       Time (seconds)
Module                                       User      System        Wall        Calls

--------------------------------------------------------------------------------------

**************************************************************************************
