
Host: jupiter

Timers On : Sun Jan 29 12:12:39 2023
Timers Off: Sun Jan 29 12:15:11 2023

Wall Time:      152.51 seconds

                                                       Time (seconds)
Module                                       User      System        Wall        Calls

--------------------------------------------------------------------------------------

**************************************************************************************

Host: jupiter

Timers On : Sun Jan 29 12:15:12 2023
Timers Off: Sun Jan 29 12:17:53 2023

Wall Time:      161.43 seconds

                                                       Time (seconds)
Module                                       User      System        Wall        Calls

--------------------------------------------------------------------------------------

**************************************************************************************

Host: jupiter

Timers On : Sun Jan 29 12:17:53 2023
Timers Off: Sun Jan 29 12:26:41 2023

Wall Time:      527.72 seconds

                                                       Time (seconds)
Module                                       User      System        Wall        Calls

--------------------------------------------------------------------------------------

**************************************************************************************

Host: jupiter

Timers On : Sun Jan 29 12:26:41 2023
Timers Off: Sun Jan 29 12:35:13 2023

Wall Time:      511.93 seconds

                                                       Time (seconds)
Module                                       User      System        Wall        Calls

--------------------------------------------------------------------------------------

**************************************************************************************

Host: jupiter

Timers On : Sun Jan 29 12:35:14 2023
Timers Off: Sun Jan 29 12:49:01 2023

Wall Time:      826.86 seconds

                                                       Time (seconds)
Module                                       User      System        Wall        Calls

--------------------------------------------------------------------------------------

**************************************************************************************

Host: jupiter

Timers On : Sun Jan 29 12:49:01 2023
Timers Off: Sun Jan 29 13:02:15 2023

Wall Time:      793.83 seconds

                                                       Time (seconds)
Module                                       User      System        Wall        Calls

--------------------------------------------------------------------------------------

**************************************************************************************
