
Host: mediawiki.tifrh.res.in

Timers On : Mon Jan 16 12:33:35 2023
Timers Off: Mon Jan 16 12:33:40 2023

Wall Time:        5.45 seconds

                                                       Time (seconds)
Module                                       User      System        Wall        Calls

--------------------------------------------------------------------------------------

**************************************************************************************

Host: mediawiki.tifrh.res.in

Timers On : Mon Jan 16 12:33:41 2023
Timers Off: Mon Jan 16 12:33:45 2023

Wall Time:        4.24 seconds

                                                       Time (seconds)
Module                                       User      System        Wall        Calls

--------------------------------------------------------------------------------------

**************************************************************************************

Host: mediawiki.tifrh.res.in

Timers On : Mon Jan 16 13:00:30 2023
Timers Off: Mon Jan 16 13:00:37 2023

Wall Time:        7.24 seconds

                                                       Time (seconds)
Module                                       User      System        Wall        Calls

--------------------------------------------------------------------------------------

**************************************************************************************

Host: mediawiki.tifrh.res.in

Timers On : Mon Jan 16 13:00:37 2023
Timers Off: Mon Jan 16 13:00:44 2023

Wall Time:        6.93 seconds

                                                       Time (seconds)
Module                                       User      System        Wall        Calls

--------------------------------------------------------------------------------------

**************************************************************************************

Host: mediawiki.tifrh.res.in

Timers On : Mon Jan 16 13:34:33 2023
Timers Off: Mon Jan 16 13:34:43 2023

Wall Time:        9.90 seconds

                                                       Time (seconds)
Module                                       User      System        Wall        Calls

--------------------------------------------------------------------------------------

**************************************************************************************

Host: mediawiki.tifrh.res.in

Timers On : Mon Jan 16 13:34:44 2023
Timers Off: Mon Jan 16 13:34:53 2023

Wall Time:        9.36 seconds

                                                       Time (seconds)
Module                                       User      System        Wall        Calls

--------------------------------------------------------------------------------------

**************************************************************************************
