
Host: mediawiki.tifrh.res.in

Timers On : Sun Jan 29 11:59:37 2023
Timers Off: Sun Jan 29 12:02:16 2023

Wall Time:      158.79 seconds

                                                       Time (seconds)
Module                                       User      System        Wall        Calls

--------------------------------------------------------------------------------------

**************************************************************************************

Host: mediawiki.tifrh.res.in

Timers On : Sun Jan 29 12:02:16 2023
Timers Off: Sun Jan 29 12:04:44 2023

Wall Time:      147.83 seconds

                                                       Time (seconds)
Module                                       User      System        Wall        Calls

--------------------------------------------------------------------------------------

**************************************************************************************

Host: mediawiki.tifrh.res.in

Timers On : Sun Jan 29 12:04:44 2023
Timers Off: Sun Jan 29 12:13:07 2023

Wall Time:      502.32 seconds

                                                       Time (seconds)
Module                                       User      System        Wall        Calls

--------------------------------------------------------------------------------------

**************************************************************************************

Host: mediawiki.tifrh.res.in

Timers On : Sun Jan 29 12:13:07 2023
Timers Off: Sun Jan 29 12:21:52 2023

Wall Time:      525.22 seconds

                                                       Time (seconds)
Module                                       User      System        Wall        Calls

--------------------------------------------------------------------------------------

**************************************************************************************

Host: mediawiki.tifrh.res.in

Timers On : Sun Jan 29 12:21:52 2023
Timers Off: Sun Jan 29 12:35:43 2023

Wall Time:      830.87 seconds

                                                       Time (seconds)
Module                                       User      System        Wall        Calls

--------------------------------------------------------------------------------------

**************************************************************************************

Host: mediawiki.tifrh.res.in

Timers On : Sun Jan 29 12:35:44 2023
Timers Off: Sun Jan 29 12:49:25 2023

Wall Time:      821.19 seconds

                                                       Time (seconds)
Module                                       User      System        Wall        Calls

--------------------------------------------------------------------------------------

**************************************************************************************
