
Host: jupiter

Timers On : Sun Jan 29 10:30:29 2023
Timers Off: Sun Jan 29 10:31:52 2023

Wall Time:       83.16 seconds

                                                       Time (seconds)
Module                                       User      System        Wall        Calls

--------------------------------------------------------------------------------------

**************************************************************************************

Host: jupiter

Timers On : Sun Jan 29 10:31:52 2023
Timers Off: Sun Jan 29 10:33:09 2023

Wall Time:       76.88 seconds

                                                       Time (seconds)
Module                                       User      System        Wall        Calls

--------------------------------------------------------------------------------------

**************************************************************************************

Host: jupiter

Timers On : Sun Jan 29 10:33:10 2023
Timers Off: Sun Jan 29 10:36:22 2023

Wall Time:      192.49 seconds

                                                       Time (seconds)
Module                                       User      System        Wall        Calls

--------------------------------------------------------------------------------------

**************************************************************************************

Host: jupiter

Timers On : Sun Jan 29 10:36:22 2023
Timers Off: Sun Jan 29 10:39:33 2023

Wall Time:      190.19 seconds

                                                       Time (seconds)
Module                                       User      System        Wall        Calls

--------------------------------------------------------------------------------------

**************************************************************************************

Host: jupiter

Timers On : Sun Jan 29 10:39:33 2023
Timers Off: Sun Jan 29 10:43:10 2023

Wall Time:      217.55 seconds

                                                       Time (seconds)
Module                                       User      System        Wall        Calls

--------------------------------------------------------------------------------------

**************************************************************************************

Host: jupiter

Timers On : Sun Jan 29 10:43:11 2023
Timers Off: Sun Jan 29 10:46:49 2023

Wall Time:      218.57 seconds

                                                       Time (seconds)
Module                                       User      System        Wall        Calls

--------------------------------------------------------------------------------------

**************************************************************************************
