
Host: jupiter

Timers On : Sun Jan 29 17:14:27 2023
Timers Off: Sun Jan 29 17:17:01 2023

Wall Time:      153.56 seconds

                                                       Time (seconds)
Module                                       User      System        Wall        Calls

--------------------------------------------------------------------------------------

**************************************************************************************

Host: jupiter

Timers On : Sun Jan 29 17:17:01 2023
Timers Off: Sun Jan 29 17:19:30 2023

Wall Time:      148.66 seconds

                                                       Time (seconds)
Module                                       User      System        Wall        Calls

--------------------------------------------------------------------------------------

**************************************************************************************

Host: jupiter

Timers On : Sun Jan 29 17:19:30 2023
Timers Off: Sun Jan 29 17:27:49 2023

Wall Time:      498.83 seconds

                                                       Time (seconds)
Module                                       User      System        Wall        Calls

--------------------------------------------------------------------------------------

**************************************************************************************

Host: jupiter

Timers On : Sun Jan 29 17:27:49 2023
Timers Off: Sun Jan 29 17:35:28 2023

Wall Time:      458.93 seconds

                                                       Time (seconds)
Module                                       User      System        Wall        Calls

--------------------------------------------------------------------------------------

**************************************************************************************

Host: jupiter

Timers On : Sun Jan 29 17:35:28 2023
Timers Off: Sun Jan 29 17:49:27 2023

Wall Time:      838.74 seconds

                                                       Time (seconds)
Module                                       User      System        Wall        Calls

--------------------------------------------------------------------------------------

**************************************************************************************

Host: jupiter

Timers On : Sun Jan 29 17:49:27 2023
Timers Off: Sun Jan 29 18:03:08 2023

Wall Time:      820.20 seconds

                                                       Time (seconds)
Module                                       User      System        Wall        Calls

--------------------------------------------------------------------------------------

**************************************************************************************
