
Host: mediawiki.tifrh.res.in

Timers On : Thu Nov  3 16:21:04 2022
Timers Off: Thu Nov  3 16:22:12 2022

Wall Time:       67.92 seconds

                                                       Time (seconds)
Module                                       User      System        Wall        Calls

--------------------------------------------------------------------------------------

**************************************************************************************

Host: mediawiki.tifrh.res.in

Timers On : Thu Nov  3 16:22:12 2022
Timers Off: Thu Nov  3 16:24:57 2022

Wall Time:      164.61 seconds

                                                       Time (seconds)
Module                                       User      System        Wall        Calls

--------------------------------------------------------------------------------------

**************************************************************************************

Host: mediawiki.tifrh.res.in

Timers On : Sat Dec 31 15:57:41 2022
Timers Off: Sat Dec 31 15:57:56 2022

Wall Time:       14.67 seconds

                                                       Time (seconds)
Module                                       User      System        Wall        Calls

--------------------------------------------------------------------------------------

**************************************************************************************

Host: mediawiki.tifrh.res.in

Timers On : Sat Dec 31 15:57:57 2022
Timers Off: Sat Dec 31 15:58:07 2022

Wall Time:       10.15 seconds

                                                       Time (seconds)
Module                                       User      System        Wall        Calls

--------------------------------------------------------------------------------------

**************************************************************************************

Host: mediawiki.tifrh.res.in

Timers On : Sat Dec 31 16:17:01 2022
Timers Off: Sat Dec 31 16:17:25 2022

Wall Time:       24.49 seconds

                                                       Time (seconds)
Module                                       User      System        Wall        Calls

--------------------------------------------------------------------------------------

**************************************************************************************

Host: mediawiki.tifrh.res.in

Timers On : Sat Dec 31 16:17:25 2022
Timers Off: Sat Dec 31 16:17:49 2022

Wall Time:       23.81 seconds

                                                       Time (seconds)
Module                                       User      System        Wall        Calls

--------------------------------------------------------------------------------------

**************************************************************************************

Host: mediawiki.tifrh.res.in

Timers On : Sat Dec 31 21:12:43 2022
Timers Off: Sat Dec 31 21:13:17 2022

Wall Time:       34.52 seconds

                                                       Time (seconds)
Module                                       User      System        Wall        Calls

--------------------------------------------------------------------------------------

**************************************************************************************

Host: mediawiki.tifrh.res.in

Timers On : Sat Dec 31 21:13:18 2022
Timers Off: Sat Dec 31 21:13:49 2022

Wall Time:       31.16 seconds

                                                       Time (seconds)
Module                                       User      System        Wall        Calls

--------------------------------------------------------------------------------------

**************************************************************************************

Host: mediawiki.tifrh.res.in

Timers On : Tue Jan  3 19:32:35 2023
Timers Off: Tue Jan  3 19:32:36 2023

Wall Time:        0.48 seconds

                                                       Time (seconds)
Module                                       User      System        Wall        Calls

--------------------------------------------------------------------------------------

**************************************************************************************

Host: mediawiki.tifrh.res.in

Timers On : Tue Jan  3 19:32:36 2023
Timers Off: Tue Jan  3 19:32:37 2023

Wall Time:        0.61 seconds

                                                       Time (seconds)
Module                                       User      System        Wall        Calls

--------------------------------------------------------------------------------------

**************************************************************************************

Host: mediawiki.tifrh.res.in

Timers On : Tue Jan  3 19:57:41 2023
Timers Off: Tue Jan  3 19:57:55 2023

Wall Time:       14.26 seconds

                                                       Time (seconds)
Module                                       User      System        Wall        Calls

--------------------------------------------------------------------------------------

**************************************************************************************

Host: mediawiki.tifrh.res.in

Timers On : Tue Jan  3 19:57:55 2023
Timers Off: Tue Jan  3 19:58:06 2023

Wall Time:       10.94 seconds

                                                       Time (seconds)
Module                                       User      System        Wall        Calls

--------------------------------------------------------------------------------------

**************************************************************************************

Host: mediawiki.tifrh.res.in

Timers On : Tue Jan  3 22:23:27 2023
Timers Off: Tue Jan  3 22:24:02 2023

Wall Time:       35.38 seconds

                                                       Time (seconds)
Module                                       User      System        Wall        Calls

--------------------------------------------------------------------------------------

**************************************************************************************

Host: mediawiki.tifrh.res.in

Timers On : Tue Jan  3 22:24:02 2023
Timers Off: Tue Jan  3 22:24:36 2023

Wall Time:       34.07 seconds

                                                       Time (seconds)
Module                                       User      System        Wall        Calls

--------------------------------------------------------------------------------------

**************************************************************************************

Host: mediawiki.tifrh.res.in

Timers On : Wed Jan  4 02:01:25 2023
Timers Off: Wed Jan  4 02:01:52 2023

Wall Time:       27.10 seconds

                                                       Time (seconds)
Module                                       User      System        Wall        Calls

--------------------------------------------------------------------------------------

**************************************************************************************

Host: mediawiki.tifrh.res.in

Timers On : Wed Jan  4 02:01:52 2023
Timers Off: Wed Jan  4 02:02:19 2023

Wall Time:       26.43 seconds

                                                       Time (seconds)
Module                                       User      System        Wall        Calls

--------------------------------------------------------------------------------------

**************************************************************************************
