
Host: mediawiki.tifrh.res.in

Timers On : Sun Jan 29 11:17:27 2023
Timers Off: Sun Jan 29 11:18:31 2023

Wall Time:       64.03 seconds

                                                       Time (seconds)
Module                                       User      System        Wall        Calls

--------------------------------------------------------------------------------------

**************************************************************************************

Host: mediawiki.tifrh.res.in

Timers On : Sun Jan 29 11:18:31 2023
Timers Off: Sun Jan 29 11:19:32 2023

Wall Time:       60.87 seconds

                                                       Time (seconds)
Module                                       User      System        Wall        Calls

--------------------------------------------------------------------------------------

**************************************************************************************

Host: mediawiki.tifrh.res.in

Timers On : Sun Jan 29 11:19:33 2023
Timers Off: Sun Jan 29 11:22:36 2023

Wall Time:      183.04 seconds

                                                       Time (seconds)
Module                                       User      System        Wall        Calls

--------------------------------------------------------------------------------------

**************************************************************************************

Host: mediawiki.tifrh.res.in

Timers On : Sun Jan 29 11:22:36 2023
Timers Off: Sun Jan 29 11:25:41 2023

Wall Time:      184.83 seconds

                                                       Time (seconds)
Module                                       User      System        Wall        Calls

--------------------------------------------------------------------------------------

**************************************************************************************

Host: mediawiki.tifrh.res.in

Timers On : Sun Jan 29 11:25:41 2023
Timers Off: Sun Jan 29 11:29:07 2023

Wall Time:      205.91 seconds

                                                       Time (seconds)
Module                                       User      System        Wall        Calls

--------------------------------------------------------------------------------------

**************************************************************************************

Host: mediawiki.tifrh.res.in

Timers On : Sun Jan 29 11:29:07 2023
Timers Off: Sun Jan 29 11:32:33 2023

Wall Time:      205.57 seconds

                                                       Time (seconds)
Module                                       User      System        Wall        Calls

--------------------------------------------------------------------------------------

**************************************************************************************
