
Host: jupiter

Timers On : Sun Jan 29 16:23:43 2023
Timers Off: Sun Jan 29 16:26:26 2023

Wall Time:      162.40 seconds

                                                       Time (seconds)
Module                                       User      System        Wall        Calls

--------------------------------------------------------------------------------------

**************************************************************************************

Host: jupiter

Timers On : Sun Jan 29 16:26:26 2023
Timers Off: Sun Jan 29 16:29:05 2023

Wall Time:      158.54 seconds

                                                       Time (seconds)
Module                                       User      System        Wall        Calls

--------------------------------------------------------------------------------------

**************************************************************************************

Host: jupiter

Timers On : Sun Jan 29 16:29:05 2023
Timers Off: Sun Jan 29 16:37:57 2023

Wall Time:      532.10 seconds

                                                       Time (seconds)
Module                                       User      System        Wall        Calls

--------------------------------------------------------------------------------------

**************************************************************************************

Host: jupiter

Timers On : Sun Jan 29 16:37:57 2023
Timers Off: Sun Jan 29 16:46:49 2023

Wall Time:      531.87 seconds

                                                       Time (seconds)
Module                                       User      System        Wall        Calls

--------------------------------------------------------------------------------------

**************************************************************************************

Host: jupiter

Timers On : Sun Jan 29 16:46:50 2023
Timers Off: Sun Jan 29 17:00:31 2023

Wall Time:      821.29 seconds

                                                       Time (seconds)
Module                                       User      System        Wall        Calls

--------------------------------------------------------------------------------------

**************************************************************************************

Host: jupiter

Timers On : Sun Jan 29 17:00:31 2023
Timers Off: Sun Jan 29 17:14:27 2023

Wall Time:      835.83 seconds

                                                       Time (seconds)
Module                                       User      System        Wall        Calls

--------------------------------------------------------------------------------------

**************************************************************************************
