
Host: jupiter

Timers On : Sun Jan 29 11:19:06 2023
Timers Off: Sun Jan 29 11:20:21 2023

Wall Time:       74.48 seconds

                                                       Time (seconds)
Module                                       User      System        Wall        Calls

--------------------------------------------------------------------------------------

**************************************************************************************

Host: jupiter

Timers On : Sun Jan 29 11:20:21 2023
Timers Off: Sun Jan 29 11:21:29 2023

Wall Time:       67.78 seconds

                                                       Time (seconds)
Module                                       User      System        Wall        Calls

--------------------------------------------------------------------------------------

**************************************************************************************

Host: jupiter

Timers On : Sun Jan 29 11:21:29 2023
Timers Off: Sun Jan 29 11:24:44 2023

Wall Time:      194.37 seconds

                                                       Time (seconds)
Module                                       User      System        Wall        Calls

--------------------------------------------------------------------------------------

**************************************************************************************

Host: jupiter

Timers On : Sun Jan 29 11:24:44 2023
Timers Off: Sun Jan 29 11:27:56 2023

Wall Time:      191.86 seconds

                                                       Time (seconds)
Module                                       User      System        Wall        Calls

--------------------------------------------------------------------------------------

**************************************************************************************

Host: jupiter

Timers On : Sun Jan 29 11:27:56 2023
Timers Off: Sun Jan 29 11:31:41 2023

Wall Time:      224.68 seconds

                                                       Time (seconds)
Module                                       User      System        Wall        Calls

--------------------------------------------------------------------------------------

**************************************************************************************

Host: jupiter

Timers On : Sun Jan 29 11:31:41 2023
Timers Off: Sun Jan 29 11:35:19 2023

Wall Time:      218.14 seconds

                                                       Time (seconds)
Module                                       User      System        Wall        Calls

--------------------------------------------------------------------------------------

**************************************************************************************
