
Host: mediawiki.tifrh.res.in

Timers On : Mon Jan 16 12:29:58 2023
Timers Off: Mon Jan 16 12:30:06 2023

Wall Time:        8.29 seconds

                                                       Time (seconds)
Module                                       User      System        Wall        Calls

--------------------------------------------------------------------------------------

**************************************************************************************

Host: mediawiki.tifrh.res.in

Timers On : Mon Jan 16 12:30:07 2023
Timers Off: Mon Jan 16 12:30:10 2023

Wall Time:        3.70 seconds

                                                       Time (seconds)
Module                                       User      System        Wall        Calls

--------------------------------------------------------------------------------------

**************************************************************************************

Host: mediawiki.tifrh.res.in

Timers On : Mon Jan 16 12:31:41 2023
Timers Off: Mon Jan 16 12:31:44 2023

Wall Time:        3.03 seconds

                                                       Time (seconds)
Module                                       User      System        Wall        Calls

--------------------------------------------------------------------------------------

**************************************************************************************

Host: mediawiki.tifrh.res.in

Timers On : Mon Jan 16 12:31:44 2023
Timers Off: Mon Jan 16 12:31:47 2023

Wall Time:        2.71 seconds

                                                       Time (seconds)
Module                                       User      System        Wall        Calls

--------------------------------------------------------------------------------------

**************************************************************************************

Host: mediawiki.tifrh.res.in

Timers On : Mon Jan 16 12:58:10 2023
Timers Off: Mon Jan 16 12:58:13 2023

Wall Time:        3.51 seconds

                                                       Time (seconds)
Module                                       User      System        Wall        Calls

--------------------------------------------------------------------------------------

**************************************************************************************

Host: mediawiki.tifrh.res.in

Timers On : Mon Jan 16 12:58:14 2023
Timers Off: Mon Jan 16 12:58:17 2023

Wall Time:        3.46 seconds

                                                       Time (seconds)
Module                                       User      System        Wall        Calls

--------------------------------------------------------------------------------------

**************************************************************************************

Host: mediawiki.tifrh.res.in

Timers On : Mon Jan 16 13:31:48 2023
Timers Off: Mon Jan 16 13:31:52 2023

Wall Time:        3.75 seconds

                                                       Time (seconds)
Module                                       User      System        Wall        Calls

--------------------------------------------------------------------------------------

**************************************************************************************

Host: mediawiki.tifrh.res.in

Timers On : Mon Jan 16 13:31:52 2023
Timers Off: Mon Jan 16 13:31:56 2023

Wall Time:        3.52 seconds

                                                       Time (seconds)
Module                                       User      System        Wall        Calls

--------------------------------------------------------------------------------------

**************************************************************************************
