
Host: mediawiki.tifrh.res.in

Timers On : Mon Jan 16 12:32:26 2023
Timers Off: Mon Jan 16 12:32:30 2023

Wall Time:        4.56 seconds

                                                       Time (seconds)
Module                                       User      System        Wall        Calls

--------------------------------------------------------------------------------------

**************************************************************************************

Host: mediawiki.tifrh.res.in

Timers On : Mon Jan 16 12:32:31 2023
Timers Off: Mon Jan 16 12:32:34 2023

Wall Time:        3.59 seconds

                                                       Time (seconds)
Module                                       User      System        Wall        Calls

--------------------------------------------------------------------------------------

**************************************************************************************

Host: mediawiki.tifrh.res.in

Timers On : Mon Jan 16 12:59:02 2023
Timers Off: Mon Jan 16 12:59:07 2023

Wall Time:        4.89 seconds

                                                       Time (seconds)
Module                                       User      System        Wall        Calls

--------------------------------------------------------------------------------------

**************************************************************************************

Host: mediawiki.tifrh.res.in

Timers On : Mon Jan 16 12:59:08 2023
Timers Off: Mon Jan 16 12:59:12 2023

Wall Time:        4.78 seconds

                                                       Time (seconds)
Module                                       User      System        Wall        Calls

--------------------------------------------------------------------------------------

**************************************************************************************

Host: mediawiki.tifrh.res.in

Timers On : Mon Jan 16 13:32:46 2023
Timers Off: Mon Jan 16 13:32:52 2023

Wall Time:        6.26 seconds

                                                       Time (seconds)
Module                                       User      System        Wall        Calls

--------------------------------------------------------------------------------------

**************************************************************************************

Host: mediawiki.tifrh.res.in

Timers On : Mon Jan 16 13:32:53 2023
Timers Off: Mon Jan 16 13:32:58 2023

Wall Time:        5.78 seconds

                                                       Time (seconds)
Module                                       User      System        Wall        Calls

--------------------------------------------------------------------------------------

**************************************************************************************
