
Host: mediawiki.tifrh.res.in

Timers On : Mon Jan 16 12:30:55 2023
Timers Off: Mon Jan 16 12:31:02 2023

Wall Time:        7.43 seconds

                                                       Time (seconds)
Module                                       User      System        Wall        Calls

--------------------------------------------------------------------------------------

**************************************************************************************

Host: mediawiki.tifrh.res.in

Timers On : Mon Jan 16 12:33:15 2023
Timers Off: Mon Jan 16 12:33:20 2023

Wall Time:        5.38 seconds

                                                       Time (seconds)
Module                                       User      System        Wall        Calls

--------------------------------------------------------------------------------------

**************************************************************************************

Host: mediawiki.tifrh.res.in

Timers On : Mon Jan 16 12:33:20 2023
Timers Off: Mon Jan 16 12:33:24 2023

Wall Time:        4.14 seconds

                                                       Time (seconds)
Module                                       User      System        Wall        Calls

--------------------------------------------------------------------------------------

**************************************************************************************

Host: mediawiki.tifrh.res.in

Timers On : Mon Jan 16 13:00:00 2023
Timers Off: Mon Jan 16 13:00:07 2023

Wall Time:        7.20 seconds

                                                       Time (seconds)
Module                                       User      System        Wall        Calls

--------------------------------------------------------------------------------------

**************************************************************************************

Host: mediawiki.tifrh.res.in

Timers On : Mon Jan 16 13:00:08 2023
Timers Off: Mon Jan 16 13:00:15 2023

Wall Time:        6.96 seconds

                                                       Time (seconds)
Module                                       User      System        Wall        Calls

--------------------------------------------------------------------------------------

**************************************************************************************

Host: mediawiki.tifrh.res.in

Timers On : Mon Jan 16 13:33:54 2023
Timers Off: Mon Jan 16 13:34:04 2023

Wall Time:        9.75 seconds

                                                       Time (seconds)
Module                                       User      System        Wall        Calls

--------------------------------------------------------------------------------------

**************************************************************************************

Host: mediawiki.tifrh.res.in

Timers On : Mon Jan 16 13:34:04 2023
Timers Off: Mon Jan 16 13:34:13 2023

Wall Time:        9.21 seconds

                                                       Time (seconds)
Module                                       User      System        Wall        Calls

--------------------------------------------------------------------------------------

**************************************************************************************
