
Host: mediawiki.tifrh.res.in

Timers On : Tue Dec 27 11:03:22 2022
Timers Off: Tue Dec 27 11:03:26 2022

Wall Time:        3.40 seconds

                                                       Time (seconds)
Module                                       User      System        Wall        Calls

--------------------------------------------------------------------------------------

**************************************************************************************

Host: mediawiki.tifrh.res.in

Timers On : Tue Dec 27 11:03:26 2022
Timers Off: Tue Dec 27 11:03:30 2022

Wall Time:        3.33 seconds

                                                       Time (seconds)
Module                                       User      System        Wall        Calls

--------------------------------------------------------------------------------------

**************************************************************************************

Host: mediawiki.tifrh.res.in

Timers On : Tue Dec 27 11:20:36 2022
Timers Off: Tue Dec 27 11:20:39 2022

Wall Time:        3.30 seconds

                                                       Time (seconds)
Module                                       User      System        Wall        Calls

--------------------------------------------------------------------------------------

**************************************************************************************

Host: mediawiki.tifrh.res.in

Timers On : Tue Dec 27 11:20:40 2022
Timers Off: Tue Dec 27 11:20:43 2022

Wall Time:        3.28 seconds

                                                       Time (seconds)
Module                                       User      System        Wall        Calls

--------------------------------------------------------------------------------------

**************************************************************************************

Host: mediawiki.tifrh.res.in

Timers On : Sat Dec 31 15:51:33 2022
Timers Off: Sat Dec 31 15:51:36 2022

Wall Time:        3.34 seconds

                                                       Time (seconds)
Module                                       User      System        Wall        Calls

--------------------------------------------------------------------------------------

**************************************************************************************

Host: mediawiki.tifrh.res.in

Timers On : Sat Dec 31 15:51:37 2022
Timers Off: Sat Dec 31 15:51:40 2022

Wall Time:        3.38 seconds

                                                       Time (seconds)
Module                                       User      System        Wall        Calls

--------------------------------------------------------------------------------------

**************************************************************************************

Host: mediawiki.tifrh.res.in

Timers On : Sat Dec 31 16:05:56 2022
Timers Off: Sat Dec 31 16:06:00 2022

Wall Time:        4.00 seconds

                                                       Time (seconds)
Module                                       User      System        Wall        Calls

--------------------------------------------------------------------------------------

**************************************************************************************

Host: mediawiki.tifrh.res.in

Timers On : Sat Dec 31 16:06:01 2022
Timers Off: Sat Dec 31 16:06:05 2022

Wall Time:        4.09 seconds

                                                       Time (seconds)
Module                                       User      System        Wall        Calls

--------------------------------------------------------------------------------------

**************************************************************************************

Host: mediawiki.tifrh.res.in

Timers On : Sat Dec 31 20:57:40 2022
Timers Off: Sat Dec 31 20:57:44 2022

Wall Time:        4.59 seconds

                                                       Time (seconds)
Module                                       User      System        Wall        Calls

--------------------------------------------------------------------------------------

**************************************************************************************

Host: mediawiki.tifrh.res.in

Timers On : Sat Dec 31 20:57:45 2022
Timers Off: Sat Dec 31 20:57:49 2022

Wall Time:        4.41 seconds

                                                       Time (seconds)
Module                                       User      System        Wall        Calls

--------------------------------------------------------------------------------------

**************************************************************************************

Host: mediawiki.tifrh.res.in

Timers On : Tue Jan  3 19:23:36 2023
Timers Off: Tue Jan  3 19:23:36 2023

Wall Time:        0.58 seconds

                                                       Time (seconds)
Module                                       User      System        Wall        Calls

--------------------------------------------------------------------------------------

**************************************************************************************

Host: mediawiki.tifrh.res.in

Timers On : Tue Jan  3 19:23:36 2023
Timers Off: Tue Jan  3 19:23:37 2023

Wall Time:        0.48 seconds

                                                       Time (seconds)
Module                                       User      System        Wall        Calls

--------------------------------------------------------------------------------------

**************************************************************************************

Host: mediawiki.tifrh.res.in

Timers On : Tue Jan  3 19:51:40 2023
Timers Off: Tue Jan  3 19:51:43 2023

Wall Time:        3.34 seconds

                                                       Time (seconds)
Module                                       User      System        Wall        Calls

--------------------------------------------------------------------------------------

**************************************************************************************

Host: mediawiki.tifrh.res.in

Timers On : Tue Jan  3 19:51:43 2023
Timers Off: Tue Jan  3 19:51:47 2023

Wall Time:        3.39 seconds

                                                       Time (seconds)
Module                                       User      System        Wall        Calls

--------------------------------------------------------------------------------------

**************************************************************************************

Host: mediawiki.tifrh.res.in

Timers On : Tue Jan  3 22:05:53 2023
Timers Off: Tue Jan  3 22:05:58 2023

Wall Time:        4.74 seconds

                                                       Time (seconds)
Module                                       User      System        Wall        Calls

--------------------------------------------------------------------------------------

**************************************************************************************

Host: mediawiki.tifrh.res.in

Timers On : Tue Jan  3 22:05:58 2023
Timers Off: Tue Jan  3 22:06:03 2023

Wall Time:        4.50 seconds

                                                       Time (seconds)
Module                                       User      System        Wall        Calls

--------------------------------------------------------------------------------------

**************************************************************************************

Host: mediawiki.tifrh.res.in

Timers On : Tue Jan  3 22:07:41 2023
Timers Off: Tue Jan  3 22:07:46 2023

Wall Time:        4.80 seconds

                                                       Time (seconds)
Module                                       User      System        Wall        Calls

--------------------------------------------------------------------------------------

**************************************************************************************

Host: mediawiki.tifrh.res.in

Timers On : Tue Jan  3 22:07:47 2023
Timers Off: Tue Jan  3 22:07:51 2023

Wall Time:        4.60 seconds

                                                       Time (seconds)
Module                                       User      System        Wall        Calls

--------------------------------------------------------------------------------------

**************************************************************************************

Host: mediawiki.tifrh.res.in

Timers On : Wed Jan  4 01:49:24 2023
Timers Off: Wed Jan  4 01:49:28 2023

Wall Time:        4.06 seconds

                                                       Time (seconds)
Module                                       User      System        Wall        Calls

--------------------------------------------------------------------------------------

**************************************************************************************

Host: mediawiki.tifrh.res.in

Timers On : Wed Jan  4 01:49:28 2023
Timers Off: Wed Jan  4 01:49:32 2023

Wall Time:        3.97 seconds

                                                       Time (seconds)
Module                                       User      System        Wall        Calls

--------------------------------------------------------------------------------------

**************************************************************************************
