
Host: mediawiki.tifrh.res.in

Timers On : Mon Jan 16 12:30:53 2023
Timers Off: Mon Jan 16 12:30:57 2023

Wall Time:        4.02 seconds

                                                       Time (seconds)
Module                                       User      System        Wall        Calls

--------------------------------------------------------------------------------------

**************************************************************************************

Host: mediawiki.tifrh.res.in

Timers On : Mon Jan 16 12:30:58 2023
Timers Off: Mon Jan 16 12:31:02 2023

Wall Time:        3.82 seconds

                                                       Time (seconds)
Module                                       User      System        Wall        Calls

--------------------------------------------------------------------------------------

**************************************************************************************

Host: mediawiki.tifrh.res.in

Timers On : Mon Jan 16 12:32:52 2023
Timers Off: Mon Jan 16 12:32:55 2023

Wall Time:        3.31 seconds

                                                       Time (seconds)
Module                                       User      System        Wall        Calls

--------------------------------------------------------------------------------------

**************************************************************************************

Host: mediawiki.tifrh.res.in

Timers On : Mon Jan 16 12:32:55 2023
Timers Off: Mon Jan 16 12:32:59 2023

Wall Time:        3.24 seconds

                                                       Time (seconds)
Module                                       User      System        Wall        Calls

--------------------------------------------------------------------------------------

**************************************************************************************

Host: mediawiki.tifrh.res.in

Timers On : Mon Jan 16 12:59:33 2023
Timers Off: Mon Jan 16 12:59:37 2023

Wall Time:        3.97 seconds

                                                       Time (seconds)
Module                                       User      System        Wall        Calls

--------------------------------------------------------------------------------------

**************************************************************************************

Host: mediawiki.tifrh.res.in

Timers On : Mon Jan 16 12:59:37 2023
Timers Off: Mon Jan 16 12:59:41 2023

Wall Time:        3.81 seconds

                                                       Time (seconds)
Module                                       User      System        Wall        Calls

--------------------------------------------------------------------------------------

**************************************************************************************

Host: mediawiki.tifrh.res.in

Timers On : Mon Jan 16 13:33:23 2023
Timers Off: Mon Jan 16 13:33:27 2023

Wall Time:        4.55 seconds

                                                       Time (seconds)
Module                                       User      System        Wall        Calls

--------------------------------------------------------------------------------------

**************************************************************************************

Host: mediawiki.tifrh.res.in

Timers On : Mon Jan 16 13:33:28 2023
Timers Off: Mon Jan 16 13:33:32 2023

Wall Time:        4.52 seconds

                                                       Time (seconds)
Module                                       User      System        Wall        Calls

--------------------------------------------------------------------------------------

**************************************************************************************
