
Host: mediawiki.tifrh.res.in

Timers On : Sun Jan 29 13:39:49 2023
Timers Off: Sun Jan 29 13:42:12 2023

Wall Time:      142.99 seconds

                                                       Time (seconds)
Module                                       User      System        Wall        Calls

--------------------------------------------------------------------------------------

**************************************************************************************

Host: mediawiki.tifrh.res.in

Timers On : Sun Jan 29 13:42:12 2023
Timers Off: Sun Jan 29 13:44:31 2023

Wall Time:      138.86 seconds

                                                       Time (seconds)
Module                                       User      System        Wall        Calls

--------------------------------------------------------------------------------------

**************************************************************************************

Host: mediawiki.tifrh.res.in

Timers On : Sun Jan 29 13:44:31 2023
Timers Off: Sun Jan 29 13:53:25 2023

Wall Time:      534.01 seconds

                                                       Time (seconds)
Module                                       User      System        Wall        Calls

--------------------------------------------------------------------------------------

**************************************************************************************

Host: mediawiki.tifrh.res.in

Timers On : Sun Jan 29 13:53:26 2023
Timers Off: Sun Jan 29 14:02:12 2023

Wall Time:      525.93 seconds

                                                       Time (seconds)
Module                                       User      System        Wall        Calls

--------------------------------------------------------------------------------------

**************************************************************************************

Host: mediawiki.tifrh.res.in

Timers On : Sun Jan 29 14:02:12 2023
Timers Off: Sun Jan 29 14:16:24 2023

Wall Time:      852.16 seconds

                                                       Time (seconds)
Module                                       User      System        Wall        Calls

--------------------------------------------------------------------------------------

**************************************************************************************

Host: mediawiki.tifrh.res.in

Timers On : Sun Jan 29 14:16:24 2023
Timers Off: Sun Jan 29 14:30:51 2023

Wall Time:      866.10 seconds

                                                       Time (seconds)
Module                                       User      System        Wall        Calls

--------------------------------------------------------------------------------------

**************************************************************************************
