
Host: mediawiki.tifrh.res.in

Timers On : Mon Jan 16 12:38:20 2023
Timers Off: Mon Jan 16 12:38:34 2023

Wall Time:       14.24 seconds

                                                       Time (seconds)
Module                                       User      System        Wall        Calls

--------------------------------------------------------------------------------------

**************************************************************************************

Host: mediawiki.tifrh.res.in

Timers On : Mon Jan 16 12:38:34 2023
Timers Off: Mon Jan 16 12:38:45 2023

Wall Time:       10.92 seconds

                                                       Time (seconds)
Module                                       User      System        Wall        Calls

--------------------------------------------------------------------------------------

**************************************************************************************

Host: mediawiki.tifrh.res.in

Timers On : Mon Jan 16 13:10:32 2023
Timers Off: Mon Jan 16 13:11:00 2023

Wall Time:       27.90 seconds

                                                       Time (seconds)
Module                                       User      System        Wall        Calls

--------------------------------------------------------------------------------------

**************************************************************************************

Host: mediawiki.tifrh.res.in

Timers On : Mon Jan 16 13:11:00 2023
Timers Off: Mon Jan 16 13:11:26 2023

Wall Time:       25.85 seconds

                                                       Time (seconds)
Module                                       User      System        Wall        Calls

--------------------------------------------------------------------------------------

**************************************************************************************

Host: mediawiki.tifrh.res.in

Timers On : Mon Jan 16 13:47:54 2023
Timers Off: Mon Jan 16 13:48:30 2023

Wall Time:       35.54 seconds

                                                       Time (seconds)
Module                                       User      System        Wall        Calls

--------------------------------------------------------------------------------------

**************************************************************************************

Host: mediawiki.tifrh.res.in

Timers On : Mon Jan 16 13:48:30 2023
Timers Off: Mon Jan 16 13:49:04 2023

Wall Time:       34.17 seconds

                                                       Time (seconds)
Module                                       User      System        Wall        Calls

--------------------------------------------------------------------------------------

**************************************************************************************
