
Host: jupiter

Timers On : Sun Jan 29 09:25:45 2023
Timers Off: Sun Jan 29 09:27:07 2023

Wall Time:       82.25 seconds

                                                       Time (seconds)
Module                                       User      System        Wall        Calls

--------------------------------------------------------------------------------------

**************************************************************************************

Host: jupiter

Timers On : Sun Jan 29 09:27:08 2023
Timers Off: Sun Jan 29 09:28:16 2023

Wall Time:       68.65 seconds

                                                       Time (seconds)
Module                                       User      System        Wall        Calls

--------------------------------------------------------------------------------------

**************************************************************************************

Host: jupiter

Timers On : Sun Jan 29 09:28:17 2023
Timers Off: Sun Jan 29 09:31:30 2023

Wall Time:      193.53 seconds

                                                       Time (seconds)
Module                                       User      System        Wall        Calls

--------------------------------------------------------------------------------------

**************************************************************************************

Host: jupiter

Timers On : Sun Jan 29 09:31:31 2023
Timers Off: Sun Jan 29 09:34:42 2023

Wall Time:      191.47 seconds

                                                       Time (seconds)
Module                                       User      System        Wall        Calls

--------------------------------------------------------------------------------------

**************************************************************************************

Host: jupiter

Timers On : Sun Jan 29 09:34:42 2023
Timers Off: Sun Jan 29 09:38:22 2023

Wall Time:      219.19 seconds

                                                       Time (seconds)
Module                                       User      System        Wall        Calls

--------------------------------------------------------------------------------------

**************************************************************************************

Host: jupiter

Timers On : Sun Jan 29 09:38:22 2023
Timers Off: Sun Jan 29 09:42:01 2023

Wall Time:      218.75 seconds

                                                       Time (seconds)
Module                                       User      System        Wall        Calls

--------------------------------------------------------------------------------------

**************************************************************************************
