
Host: mediawiki.tifrh.res.in

Timers On : Sun Jan 29 10:10:05 2023
Timers Off: Sun Jan 29 10:10:27 2023

Wall Time:       22.16 seconds

                                                       Time (seconds)
Module                                       User      System        Wall        Calls

--------------------------------------------------------------------------------------

**************************************************************************************

Host: mediawiki.tifrh.res.in

Timers On : Sun Jan 29 10:10:27 2023
Timers Off: Sun Jan 29 10:10:43 2023

Wall Time:       16.20 seconds

                                                       Time (seconds)
Module                                       User      System        Wall        Calls

--------------------------------------------------------------------------------------

**************************************************************************************

Host: mediawiki.tifrh.res.in

Timers On : Sun Jan 29 10:10:44 2023
Timers Off: Sun Jan 29 10:11:51 2023

Wall Time:       67.73 seconds

                                                       Time (seconds)
Module                                       User      System        Wall        Calls

--------------------------------------------------------------------------------------

**************************************************************************************

Host: mediawiki.tifrh.res.in

Timers On : Sun Jan 29 10:11:52 2023
Timers Off: Sun Jan 29 10:12:56 2023

Wall Time:       64.43 seconds

                                                       Time (seconds)
Module                                       User      System        Wall        Calls

--------------------------------------------------------------------------------------

**************************************************************************************

Host: mediawiki.tifrh.res.in

Timers On : Sun Jan 29 10:12:56 2023
Timers Off: Sun Jan 29 10:13:47 2023

Wall Time:       50.59 seconds

                                                       Time (seconds)
Module                                       User      System        Wall        Calls

--------------------------------------------------------------------------------------

**************************************************************************************

Host: mediawiki.tifrh.res.in

Timers On : Sun Jan 29 10:13:47 2023
Timers Off: Sun Jan 29 10:14:40 2023

Wall Time:       52.24 seconds

                                                       Time (seconds)
Module                                       User      System        Wall        Calls

--------------------------------------------------------------------------------------

**************************************************************************************
