
Host: jupiter

Timers On : Sun Jan 29 21:30:58 2023
Timers Off: Sun Jan 29 21:34:25 2023

Wall Time:      207.39 seconds

                                                       Time (seconds)
Module                                       User      System        Wall        Calls

--------------------------------------------------------------------------------------

**************************************************************************************

Host: jupiter

Timers On : Sun Jan 29 21:34:26 2023
Timers Off: Sun Jan 29 21:37:44 2023

Wall Time:      198.51 seconds

                                                       Time (seconds)
Module                                       User      System        Wall        Calls

--------------------------------------------------------------------------------------

**************************************************************************************

Host: jupiter

Timers On : Sun Jan 29 21:37:44 2023
Timers Off: Sun Jan 29 21:46:59 2023

Wall Time:      554.78 seconds

                                                       Time (seconds)
Module                                       User      System        Wall        Calls

--------------------------------------------------------------------------------------

**************************************************************************************

Host: jupiter

Timers On : Sun Jan 29 21:46:59 2023
Timers Off: Sun Jan 29 21:56:13 2023

Wall Time:      553.23 seconds

                                                       Time (seconds)
Module                                       User      System        Wall        Calls

--------------------------------------------------------------------------------------

**************************************************************************************

Host: jupiter

Timers On : Sun Jan 29 21:56:13 2023
Timers Off: Sun Jan 29 22:10:23 2023

Wall Time:      849.74 seconds

                                                       Time (seconds)
Module                                       User      System        Wall        Calls

--------------------------------------------------------------------------------------

**************************************************************************************

Host: jupiter

Timers On : Sun Jan 29 22:10:23 2023
Timers Off: Sun Jan 29 22:25:01 2023

Wall Time:      878.35 seconds

                                                       Time (seconds)
Module                                       User      System        Wall        Calls

--------------------------------------------------------------------------------------

**************************************************************************************
