
Host: jupiter

Timers On : Sun Jan 29 10:46:50 2023
Timers Off: Sun Jan 29 10:48:07 2023

Wall Time:       77.74 seconds

                                                       Time (seconds)
Module                                       User      System        Wall        Calls

--------------------------------------------------------------------------------------

**************************************************************************************

Host: jupiter

Timers On : Sun Jan 29 10:48:08 2023
Timers Off: Sun Jan 29 10:49:17 2023

Wall Time:       69.29 seconds

                                                       Time (seconds)
Module                                       User      System        Wall        Calls

--------------------------------------------------------------------------------------

**************************************************************************************

Host: jupiter

Timers On : Sun Jan 29 10:49:17 2023
Timers Off: Sun Jan 29 10:52:33 2023

Wall Time:      195.53 seconds

                                                       Time (seconds)
Module                                       User      System        Wall        Calls

--------------------------------------------------------------------------------------

**************************************************************************************

Host: jupiter

Timers On : Sun Jan 29 10:52:33 2023
Timers Off: Sun Jan 29 10:55:42 2023

Wall Time:      188.62 seconds

                                                       Time (seconds)
Module                                       User      System        Wall        Calls

--------------------------------------------------------------------------------------

**************************************************************************************

Host: jupiter

Timers On : Sun Jan 29 10:55:42 2023
Timers Off: Sun Jan 29 10:59:24 2023

Wall Time:      221.81 seconds

                                                       Time (seconds)
Module                                       User      System        Wall        Calls

--------------------------------------------------------------------------------------

**************************************************************************************

Host: jupiter

Timers On : Sun Jan 29 10:59:24 2023
Timers Off: Sun Jan 29 11:03:02 2023

Wall Time:      218.04 seconds

                                                       Time (seconds)
Module                                       User      System        Wall        Calls

--------------------------------------------------------------------------------------

**************************************************************************************
