
Host: mediawiki.tifrh.res.in

Timers On : Mon Jan 16 12:38:45 2023
Timers Off: Mon Jan 16 12:38:59 2023

Wall Time:       13.80 seconds

                                                       Time (seconds)
Module                                       User      System        Wall        Calls

--------------------------------------------------------------------------------------

**************************************************************************************

Host: mediawiki.tifrh.res.in

Timers On : Mon Jan 16 12:39:00 2023
Timers Off: Mon Jan 16 12:39:10 2023

Wall Time:       10.76 seconds

                                                       Time (seconds)
Module                                       User      System        Wall        Calls

--------------------------------------------------------------------------------------

**************************************************************************************

Host: mediawiki.tifrh.res.in

Timers On : Mon Jan 16 13:11:26 2023
Timers Off: Mon Jan 16 13:11:54 2023

Wall Time:       27.27 seconds

                                                       Time (seconds)
Module                                       User      System        Wall        Calls

--------------------------------------------------------------------------------------

**************************************************************************************

Host: mediawiki.tifrh.res.in

Timers On : Mon Jan 16 13:11:54 2023
Timers Off: Mon Jan 16 13:12:21 2023

Wall Time:       26.51 seconds

                                                       Time (seconds)
Module                                       User      System        Wall        Calls

--------------------------------------------------------------------------------------

**************************************************************************************

Host: mediawiki.tifrh.res.in

Timers On : Mon Jan 16 13:49:05 2023
Timers Off: Mon Jan 16 13:49:40 2023

Wall Time:       35.60 seconds

                                                       Time (seconds)
Module                                       User      System        Wall        Calls

--------------------------------------------------------------------------------------

**************************************************************************************

Host: mediawiki.tifrh.res.in

Timers On : Mon Jan 16 13:49:41 2023
Timers Off: Mon Jan 16 13:50:15 2023

Wall Time:       33.80 seconds

                                                       Time (seconds)
Module                                       User      System        Wall        Calls

--------------------------------------------------------------------------------------

**************************************************************************************
