
Host: jupiter

Timers On : Sun Jan 29 10:14:12 2023
Timers Off: Sun Jan 29 10:15:34 2023

Wall Time:       81.55 seconds

                                                       Time (seconds)
Module                                       User      System        Wall        Calls

--------------------------------------------------------------------------------------

**************************************************************************************

Host: jupiter

Timers On : Sun Jan 29 10:15:34 2023
Timers Off: Sun Jan 29 10:16:47 2023

Wall Time:       72.94 seconds

                                                       Time (seconds)
Module                                       User      System        Wall        Calls

--------------------------------------------------------------------------------------

**************************************************************************************

Host: jupiter

Timers On : Sun Jan 29 10:16:47 2023
Timers Off: Sun Jan 29 10:19:59 2023

Wall Time:      191.77 seconds

                                                       Time (seconds)
Module                                       User      System        Wall        Calls

--------------------------------------------------------------------------------------

**************************************************************************************

Host: jupiter

Timers On : Sun Jan 29 10:19:59 2023
Timers Off: Sun Jan 29 10:23:09 2023

Wall Time:      189.24 seconds

                                                       Time (seconds)
Module                                       User      System        Wall        Calls

--------------------------------------------------------------------------------------

**************************************************************************************

Host: jupiter

Timers On : Sun Jan 29 10:23:09 2023
Timers Off: Sun Jan 29 10:26:51 2023

Wall Time:      221.92 seconds

                                                       Time (seconds)
Module                                       User      System        Wall        Calls

--------------------------------------------------------------------------------------

**************************************************************************************

Host: jupiter

Timers On : Sun Jan 29 10:26:51 2023
Timers Off: Sun Jan 29 10:30:29 2023

Wall Time:      217.35 seconds

                                                       Time (seconds)
Module                                       User      System        Wall        Calls

--------------------------------------------------------------------------------------

**************************************************************************************
