
Host: mediawiki.tifrh.res.in

Timers On : Sun Jan 29 10:00:06 2023
Timers Off: Sun Jan 29 10:00:07 2023

Wall Time:        0.85 seconds

                                                       Time (seconds)
Module                                       User      System        Wall        Calls

--------------------------------------------------------------------------------------

**************************************************************************************

Host: mediawiki.tifrh.res.in

Timers On : Sun Jan 29 10:01:11 2023
Timers Off: Sun Jan 29 10:01:34 2023

Wall Time:       23.66 seconds

                                                       Time (seconds)
Module                                       User      System        Wall        Calls

--------------------------------------------------------------------------------------

**************************************************************************************

Host: mediawiki.tifrh.res.in

Timers On : Sun Jan 29 10:01:35 2023
Timers Off: Sun Jan 29 10:01:52 2023

Wall Time:       17.26 seconds

                                                       Time (seconds)
Module                                       User      System        Wall        Calls

--------------------------------------------------------------------------------------

**************************************************************************************

Host: mediawiki.tifrh.res.in

Timers On : Sun Jan 29 10:01:52 2023
Timers Off: Sun Jan 29 10:02:58 2023

Wall Time:       66.20 seconds

                                                       Time (seconds)
Module                                       User      System        Wall        Calls

--------------------------------------------------------------------------------------

**************************************************************************************

Host: mediawiki.tifrh.res.in

Timers On : Sun Jan 29 10:02:59 2023
Timers Off: Sun Jan 29 10:04:01 2023

Wall Time:       62.52 seconds

                                                       Time (seconds)
Module                                       User      System        Wall        Calls

--------------------------------------------------------------------------------------

**************************************************************************************

Host: mediawiki.tifrh.res.in

Timers On : Sun Jan 29 10:04:01 2023
Timers Off: Sun Jan 29 10:04:53 2023

Wall Time:       51.57 seconds

                                                       Time (seconds)
Module                                       User      System        Wall        Calls

--------------------------------------------------------------------------------------

**************************************************************************************

Host: mediawiki.tifrh.res.in

Timers On : Sun Jan 29 10:04:53 2023
Timers Off: Sun Jan 29 10:05:42 2023

Wall Time:       48.92 seconds

                                                       Time (seconds)
Module                                       User      System        Wall        Calls

--------------------------------------------------------------------------------------

**************************************************************************************
