
Host: mediawiki.tifrh.res.in

Timers On : Mon Jan 16 12:34:13 2023
Timers Off: Mon Jan 16 12:34:22 2023

Wall Time:        9.13 seconds

                                                       Time (seconds)
Module                                       User      System        Wall        Calls

--------------------------------------------------------------------------------------

**************************************************************************************

Host: mediawiki.tifrh.res.in

Timers On : Mon Jan 16 12:34:23 2023
Timers Off: Mon Jan 16 12:34:29 2023

Wall Time:        6.10 seconds

                                                       Time (seconds)
Module                                       User      System        Wall        Calls

--------------------------------------------------------------------------------------

**************************************************************************************

Host: mediawiki.tifrh.res.in

Timers On : Mon Jan 16 13:01:25 2023
Timers Off: Mon Jan 16 13:01:37 2023

Wall Time:       11.84 seconds

                                                       Time (seconds)
Module                                       User      System        Wall        Calls

--------------------------------------------------------------------------------------

**************************************************************************************

Host: mediawiki.tifrh.res.in

Timers On : Mon Jan 16 13:01:37 2023
Timers Off: Mon Jan 16 13:01:49 2023

Wall Time:       11.62 seconds

                                                       Time (seconds)
Module                                       User      System        Wall        Calls

--------------------------------------------------------------------------------------

**************************************************************************************

Host: mediawiki.tifrh.res.in

Timers On : Mon Jan 16 13:35:45 2023
Timers Off: Mon Jan 16 13:36:02 2023

Wall Time:       16.95 seconds

                                                       Time (seconds)
Module                                       User      System        Wall        Calls

--------------------------------------------------------------------------------------

**************************************************************************************

Host: mediawiki.tifrh.res.in

Timers On : Mon Jan 16 13:36:02 2023
Timers Off: Mon Jan 16 13:36:18 2023

Wall Time:       15.60 seconds

                                                       Time (seconds)
Module                                       User      System        Wall        Calls

--------------------------------------------------------------------------------------

**************************************************************************************
