
Host: mediawiki.tifrh.res.in

Timers On : Tue Dec 27 11:04:56 2022
Timers Off: Tue Dec 27 11:05:01 2022

Wall Time:        5.03 seconds

                                                       Time (seconds)
Module                                       User      System        Wall        Calls

--------------------------------------------------------------------------------------

**************************************************************************************

Host: mediawiki.tifrh.res.in

Timers On : Tue Dec 27 11:05:02 2022
Timers Off: Tue Dec 27 11:05:05 2022

Wall Time:        3.55 seconds

                                                       Time (seconds)
Module                                       User      System        Wall        Calls

--------------------------------------------------------------------------------------

**************************************************************************************

Host: mediawiki.tifrh.res.in

Timers On : Sat Dec 31 15:51:04 2022
Timers Off: Sat Dec 31 15:51:09 2022

Wall Time:        4.92 seconds

                                                       Time (seconds)
Module                                       User      System        Wall        Calls

--------------------------------------------------------------------------------------

**************************************************************************************

Host: mediawiki.tifrh.res.in

Timers On : Sat Dec 31 15:51:09 2022
Timers Off: Sat Dec 31 15:51:13 2022

Wall Time:        3.70 seconds

                                                       Time (seconds)
Module                                       User      System        Wall        Calls

--------------------------------------------------------------------------------------

**************************************************************************************

Host: mediawiki.tifrh.res.in

Timers On : Sat Dec 31 16:05:25 2022
Timers Off: Sat Dec 31 16:05:30 2022

Wall Time:        4.81 seconds

                                                       Time (seconds)
Module                                       User      System        Wall        Calls

--------------------------------------------------------------------------------------

**************************************************************************************

Host: mediawiki.tifrh.res.in

Timers On : Sat Dec 31 16:05:30 2022
Timers Off: Sat Dec 31 16:05:35 2022

Wall Time:        4.68 seconds

                                                       Time (seconds)
Module                                       User      System        Wall        Calls

--------------------------------------------------------------------------------------

**************************************************************************************

Host: mediawiki.tifrh.res.in

Timers On : Sat Dec 31 20:57:01 2022
Timers Off: Sat Dec 31 20:57:07 2022

Wall Time:        6.32 seconds

                                                       Time (seconds)
Module                                       User      System        Wall        Calls

--------------------------------------------------------------------------------------

**************************************************************************************

Host: mediawiki.tifrh.res.in

Timers On : Sat Dec 31 20:57:07 2022
Timers Off: Sat Dec 31 20:57:13 2022

Wall Time:        5.55 seconds

                                                       Time (seconds)
Module                                       User      System        Wall        Calls

--------------------------------------------------------------------------------------

**************************************************************************************

Host: mediawiki.tifrh.res.in

Timers On : Tue Jan  3 19:21:24 2023
Timers Off: Tue Jan  3 19:21:24 2023

Wall Time:        0.59 seconds

                                                       Time (seconds)
Module                                       User      System        Wall        Calls

--------------------------------------------------------------------------------------

**************************************************************************************

Host: mediawiki.tifrh.res.in

Timers On : Tue Jan  3 19:21:25 2023
Timers Off: Tue Jan  3 19:21:25 2023

Wall Time:        0.48 seconds

                                                       Time (seconds)
Module                                       User      System        Wall        Calls

--------------------------------------------------------------------------------------

**************************************************************************************

Host: mediawiki.tifrh.res.in

Timers On : Tue Jan  3 19:51:13 2023
Timers Off: Tue Jan  3 19:51:17 2023

Wall Time:        4.61 seconds

                                                       Time (seconds)
Module                                       User      System        Wall        Calls

--------------------------------------------------------------------------------------

**************************************************************************************

Host: mediawiki.tifrh.res.in

Timers On : Tue Jan  3 19:51:18 2023
Timers Off: Tue Jan  3 19:51:21 2023

Wall Time:        3.54 seconds

                                                       Time (seconds)
Module                                       User      System        Wall        Calls

--------------------------------------------------------------------------------------

**************************************************************************************

Host: mediawiki.tifrh.res.in

Timers On : Tue Jan  3 22:05:34 2023
Timers Off: Tue Jan  3 22:05:40 2023

Wall Time:        6.44 seconds

                                                       Time (seconds)
Module                                       User      System        Wall        Calls

--------------------------------------------------------------------------------------

**************************************************************************************

Host: mediawiki.tifrh.res.in

Timers On : Tue Jan  3 22:05:40 2023
Timers Off: Tue Jan  3 22:05:46 2023

Wall Time:        5.73 seconds

                                                       Time (seconds)
Module                                       User      System        Wall        Calls

--------------------------------------------------------------------------------------

**************************************************************************************

Host: mediawiki.tifrh.res.in

Timers On : Tue Jan  3 22:07:02 2023
Timers Off: Tue Jan  3 22:07:08 2023

Wall Time:        6.77 seconds

                                                       Time (seconds)
Module                                       User      System        Wall        Calls

--------------------------------------------------------------------------------------

**************************************************************************************

Host: mediawiki.tifrh.res.in

Timers On : Tue Jan  3 22:07:09 2023
Timers Off: Tue Jan  3 22:07:15 2023

Wall Time:        5.76 seconds

                                                       Time (seconds)
Module                                       User      System        Wall        Calls

--------------------------------------------------------------------------------------

**************************************************************************************

Host: mediawiki.tifrh.res.in

Timers On : Wed Jan  4 01:48:51 2023
Timers Off: Wed Jan  4 01:48:57 2023

Wall Time:        5.34 seconds

                                                       Time (seconds)
Module                                       User      System        Wall        Calls

--------------------------------------------------------------------------------------

**************************************************************************************

Host: mediawiki.tifrh.res.in

Timers On : Wed Jan  4 01:48:57 2023
Timers Off: Wed Jan  4 01:49:02 2023

Wall Time:        5.00 seconds

                                                       Time (seconds)
Module                                       User      System        Wall        Calls

--------------------------------------------------------------------------------------

**************************************************************************************
