
Host: mediawiki.tifrh.res.in

Timers On : Sun Jan 29 10:39:08 2023
Timers Off: Sun Jan 29 10:39:41 2023

Wall Time:       33.40 seconds

                                                       Time (seconds)
Module                                       User      System        Wall        Calls

--------------------------------------------------------------------------------------

**************************************************************************************

Host: mediawiki.tifrh.res.in

Timers On : Sun Jan 29 10:39:41 2023
Timers Off: Sun Jan 29 10:40:08 2023

Wall Time:       26.75 seconds

                                                       Time (seconds)
Module                                       User      System        Wall        Calls

--------------------------------------------------------------------------------------

**************************************************************************************

Host: mediawiki.tifrh.res.in

Timers On : Sun Jan 29 10:40:09 2023
Timers Off: Sun Jan 29 10:41:46 2023

Wall Time:       97.48 seconds

                                                       Time (seconds)
Module                                       User      System        Wall        Calls

--------------------------------------------------------------------------------------

**************************************************************************************

Host: mediawiki.tifrh.res.in

Timers On : Sun Jan 29 10:41:46 2023
Timers Off: Sun Jan 29 10:43:26 2023

Wall Time:       99.43 seconds

                                                       Time (seconds)
Module                                       User      System        Wall        Calls

--------------------------------------------------------------------------------------

**************************************************************************************

Host: mediawiki.tifrh.res.in

Timers On : Sun Jan 29 10:43:26 2023
Timers Off: Sun Jan 29 10:45:01 2023

Wall Time:       94.35 seconds

                                                       Time (seconds)
Module                                       User      System        Wall        Calls

--------------------------------------------------------------------------------------

**************************************************************************************

Host: mediawiki.tifrh.res.in

Timers On : Sun Jan 29 10:45:01 2023
Timers Off: Sun Jan 29 10:46:40 2023

Wall Time:       99.36 seconds

                                                       Time (seconds)
Module                                       User      System        Wall        Calls

--------------------------------------------------------------------------------------

**************************************************************************************
