
Host: mediawiki.tifrh.res.in

Timers On : Mon Jan 16 12:33:25 2023
Timers Off: Mon Jan 16 12:33:30 2023

Wall Time:        5.27 seconds

                                                       Time (seconds)
Module                                       User      System        Wall        Calls

--------------------------------------------------------------------------------------

**************************************************************************************

Host: mediawiki.tifrh.res.in

Timers On : Mon Jan 16 12:33:30 2023
Timers Off: Mon Jan 16 12:33:35 2023

Wall Time:        4.23 seconds

                                                       Time (seconds)
Module                                       User      System        Wall        Calls

--------------------------------------------------------------------------------------

**************************************************************************************

Host: mediawiki.tifrh.res.in

Timers On : Mon Jan 16 13:00:15 2023
Timers Off: Mon Jan 16 13:00:22 2023

Wall Time:        7.30 seconds

                                                       Time (seconds)
Module                                       User      System        Wall        Calls

--------------------------------------------------------------------------------------

**************************************************************************************

Host: mediawiki.tifrh.res.in

Timers On : Mon Jan 16 13:00:23 2023
Timers Off: Mon Jan 16 13:00:30 2023

Wall Time:        6.91 seconds

                                                       Time (seconds)
Module                                       User      System        Wall        Calls

--------------------------------------------------------------------------------------

**************************************************************************************

Host: mediawiki.tifrh.res.in

Timers On : Mon Jan 16 13:34:14 2023
Timers Off: Mon Jan 16 13:34:23 2023

Wall Time:        9.88 seconds

                                                       Time (seconds)
Module                                       User      System        Wall        Calls

--------------------------------------------------------------------------------------

**************************************************************************************

Host: mediawiki.tifrh.res.in

Timers On : Mon Jan 16 13:34:24 2023
Timers Off: Mon Jan 16 13:34:33 2023

Wall Time:        9.22 seconds

                                                       Time (seconds)
Module                                       User      System        Wall        Calls

--------------------------------------------------------------------------------------

**************************************************************************************
