
Host: mediawiki.tifrh.res.in

Timers On : Sat Dec 31 11:29:58 2022
Timers Off: Sat Dec 31 11:29:59 2022

Wall Time:        0.77 seconds

                                                       Time (seconds)
Module                                       User      System        Wall        Calls

--------------------------------------------------------------------------------------

**************************************************************************************

Host: mediawiki.tifrh.res.in

Timers On : Sat Dec 31 11:29:59 2022
Timers Off: Sat Dec 31 11:30:00 2022

Wall Time:        0.63 seconds

                                                       Time (seconds)
Module                                       User      System        Wall        Calls

--------------------------------------------------------------------------------------

**************************************************************************************

Host: mediawiki.tifrh.res.in

Timers On : Sat Dec 31 11:36:39 2022
Timers Off: Sat Dec 31 11:36:42 2022

Wall Time:        3.05 seconds

                                                       Time (seconds)
Module                                       User      System        Wall        Calls

--------------------------------------------------------------------------------------

**************************************************************************************

Host: mediawiki.tifrh.res.in

Timers On : Sat Dec 31 11:36:43 2022
Timers Off: Sat Dec 31 11:36:46 2022

Wall Time:        3.08 seconds

                                                       Time (seconds)
Module                                       User      System        Wall        Calls

--------------------------------------------------------------------------------------

**************************************************************************************

Host: mediawiki.tifrh.res.in

Timers On : Sat Dec 31 12:00:39 2022
Timers Off: Sat Dec 31 12:00:43 2022

Wall Time:        4.21 seconds

                                                       Time (seconds)
Module                                       User      System        Wall        Calls

--------------------------------------------------------------------------------------

**************************************************************************************

Host: mediawiki.tifrh.res.in

Timers On : Sat Dec 31 12:00:44 2022
Timers Off: Sat Dec 31 12:00:48 2022

Wall Time:        4.30 seconds

                                                       Time (seconds)
Module                                       User      System        Wall        Calls

--------------------------------------------------------------------------------------

**************************************************************************************

Host: mediawiki.tifrh.res.in

Timers On : Sat Dec 31 14:05:38 2022
Timers Off: Sat Dec 31 14:05:43 2022

Wall Time:        5.18 seconds

                                                       Time (seconds)
Module                                       User      System        Wall        Calls

--------------------------------------------------------------------------------------

**************************************************************************************

Host: mediawiki.tifrh.res.in

Timers On : Sat Dec 31 14:05:43 2022
Timers Off: Sat Dec 31 14:05:49 2022

Wall Time:        5.05 seconds

                                                       Time (seconds)
Module                                       User      System        Wall        Calls

--------------------------------------------------------------------------------------

**************************************************************************************

Host: mediawiki.tifrh.res.in

Timers On : Sat Dec 31 14:47:08 2022
Timers Off: Sat Dec 31 14:47:13 2022

Wall Time:        4.71 seconds

                                                       Time (seconds)
Module                                       User      System        Wall        Calls

--------------------------------------------------------------------------------------

**************************************************************************************

Host: mediawiki.tifrh.res.in

Timers On : Sat Dec 31 14:47:14 2022
Timers Off: Sat Dec 31 14:47:18 2022

Wall Time:        4.40 seconds

                                                       Time (seconds)
Module                                       User      System        Wall        Calls

--------------------------------------------------------------------------------------

**************************************************************************************

Host: mediawiki.tifrh.res.in

Timers On : Sat Dec 31 15:28:20 2022
Timers Off: Sat Dec 31 15:28:24 2022

Wall Time:        3.89 seconds

                                                       Time (seconds)
Module                                       User      System        Wall        Calls

--------------------------------------------------------------------------------------

**************************************************************************************

Host: mediawiki.tifrh.res.in

Timers On : Sat Dec 31 15:28:24 2022
Timers Off: Sat Dec 31 15:28:28 2022

Wall Time:        4.15 seconds

                                                       Time (seconds)
Module                                       User      System        Wall        Calls

--------------------------------------------------------------------------------------

**************************************************************************************

Host: mediawiki.tifrh.res.in

Timers On : Tue Jan  3 20:07:44 2023
Timers Off: Tue Jan  3 20:07:48 2023

Wall Time:        4.37 seconds

                                                       Time (seconds)
Module                                       User      System        Wall        Calls

--------------------------------------------------------------------------------------

**************************************************************************************

Host: mediawiki.tifrh.res.in

Timers On : Tue Jan  3 20:07:49 2023
Timers Off: Tue Jan  3 20:07:53 2023

Wall Time:        4.55 seconds

                                                       Time (seconds)
Module                                       User      System        Wall        Calls

--------------------------------------------------------------------------------------

**************************************************************************************

Host: mediawiki.tifrh.res.in

Timers On : Tue Jan  3 20:24:03 2023
Timers Off: Tue Jan  3 20:24:08 2023

Wall Time:        5.86 seconds

                                                       Time (seconds)
Module                                       User      System        Wall        Calls

--------------------------------------------------------------------------------------

**************************************************************************************

Host: mediawiki.tifrh.res.in

Timers On : Tue Jan  3 20:24:09 2023
Timers Off: Tue Jan  3 20:24:14 2023

Wall Time:        5.43 seconds

                                                       Time (seconds)
Module                                       User      System        Wall        Calls

--------------------------------------------------------------------------------------

**************************************************************************************

Host: mediawiki.tifrh.res.in

Timers On : Tue Jan  3 21:01:52 2023
Timers Off: Tue Jan  3 21:01:57 2023

Wall Time:        5.00 seconds

                                                       Time (seconds)
Module                                       User      System        Wall        Calls

--------------------------------------------------------------------------------------

**************************************************************************************

Host: mediawiki.tifrh.res.in

Timers On : Tue Jan  3 21:01:58 2023
Timers Off: Tue Jan  3 21:02:03 2023

Wall Time:        4.92 seconds

                                                       Time (seconds)
Module                                       User      System        Wall        Calls

--------------------------------------------------------------------------------------

**************************************************************************************
