
Host: jupiter

Timers On : Sun Jan 29 20:36:41 2023
Timers Off: Sun Jan 29 20:40:13 2023

Wall Time:      211.92 seconds

                                                       Time (seconds)
Module                                       User      System        Wall        Calls

--------------------------------------------------------------------------------------

**************************************************************************************

Host: jupiter

Timers On : Sun Jan 29 20:40:13 2023
Timers Off: Sun Jan 29 20:43:34 2023

Wall Time:      200.89 seconds

                                                       Time (seconds)
Module                                       User      System        Wall        Calls

--------------------------------------------------------------------------------------

**************************************************************************************

Host: jupiter

Timers On : Sun Jan 29 20:43:34 2023
Timers Off: Sun Jan 29 20:52:38 2023

Wall Time:      544.08 seconds

                                                       Time (seconds)
Module                                       User      System        Wall        Calls

--------------------------------------------------------------------------------------

**************************************************************************************

Host: jupiter

Timers On : Sun Jan 29 20:52:39 2023
Timers Off: Sun Jan 29 21:01:35 2023

Wall Time:      535.89 seconds

                                                       Time (seconds)
Module                                       User      System        Wall        Calls

--------------------------------------------------------------------------------------

**************************************************************************************

Host: jupiter

Timers On : Sun Jan 29 21:01:35 2023
Timers Off: Sun Jan 29 21:16:19 2023

Wall Time:      884.39 seconds

                                                       Time (seconds)
Module                                       User      System        Wall        Calls

--------------------------------------------------------------------------------------

**************************************************************************************

Host: jupiter

Timers On : Sun Jan 29 21:16:20 2023
Timers Off: Sun Jan 29 21:30:57 2023

Wall Time:      877.87 seconds

                                                       Time (seconds)
Module                                       User      System        Wall        Calls

--------------------------------------------------------------------------------------

**************************************************************************************
