
Host: mediawiki.tifrh.res.in

Timers On : Mon Jan 16 12:33:06 2023
Timers Off: Mon Jan 16 12:33:09 2023

Wall Time:        3.19 seconds

                                                       Time (seconds)
Module                                       User      System        Wall        Calls

--------------------------------------------------------------------------------------

**************************************************************************************

Host: mediawiki.tifrh.res.in

Timers On : Mon Jan 16 12:33:10 2023
Timers Off: Mon Jan 16 12:33:13 2023

Wall Time:        3.22 seconds

                                                       Time (seconds)
Module                                       User      System        Wall        Calls

--------------------------------------------------------------------------------------

**************************************************************************************

Host: mediawiki.tifrh.res.in

Timers On : Mon Jan 16 12:59:50 2023
Timers Off: Mon Jan 16 12:59:54 2023

Wall Time:        3.95 seconds

                                                       Time (seconds)
Module                                       User      System        Wall        Calls

--------------------------------------------------------------------------------------

**************************************************************************************

Host: mediawiki.tifrh.res.in

Timers On : Mon Jan 16 12:59:55 2023
Timers Off: Mon Jan 16 12:59:59 2023

Wall Time:        3.86 seconds

                                                       Time (seconds)
Module                                       User      System        Wall        Calls

--------------------------------------------------------------------------------------

**************************************************************************************

Host: mediawiki.tifrh.res.in

Timers On : Mon Jan 16 13:33:43 2023
Timers Off: Mon Jan 16 13:33:47 2023

Wall Time:        4.58 seconds

                                                       Time (seconds)
Module                                       User      System        Wall        Calls

--------------------------------------------------------------------------------------

**************************************************************************************

Host: mediawiki.tifrh.res.in

Timers On : Mon Jan 16 13:33:48 2023
Timers Off: Mon Jan 16 13:33:52 2023

Wall Time:        4.54 seconds

                                                       Time (seconds)
Module                                       User      System        Wall        Calls

--------------------------------------------------------------------------------------

**************************************************************************************
