
Host: jupiter

Timers On : Sun Jan 29 15:34:06 2023
Timers Off: Sun Jan 29 15:36:32 2023

Wall Time:      146.26 seconds

                                                       Time (seconds)
Module                                       User      System        Wall        Calls

--------------------------------------------------------------------------------------

**************************************************************************************

Host: jupiter

Timers On : Sun Jan 29 15:36:32 2023
Timers Off: Sun Jan 29 15:38:52 2023

Wall Time:      139.34 seconds

                                                       Time (seconds)
Module                                       User      System        Wall        Calls

--------------------------------------------------------------------------------------

**************************************************************************************

Host: jupiter

Timers On : Sun Jan 29 15:38:52 2023
Timers Off: Sun Jan 29 15:47:37 2023

Wall Time:      525.33 seconds

                                                       Time (seconds)
Module                                       User      System        Wall        Calls

--------------------------------------------------------------------------------------

**************************************************************************************

Host: jupiter

Timers On : Sun Jan 29 15:47:38 2023
Timers Off: Sun Jan 29 15:56:25 2023

Wall Time:      527.32 seconds

                                                       Time (seconds)
Module                                       User      System        Wall        Calls

--------------------------------------------------------------------------------------

**************************************************************************************

Host: jupiter

Timers On : Sun Jan 29 15:56:25 2023
Timers Off: Sun Jan 29 16:09:56 2023

Wall Time:      811.04 seconds

                                                       Time (seconds)
Module                                       User      System        Wall        Calls

--------------------------------------------------------------------------------------

**************************************************************************************

Host: jupiter

Timers On : Sun Jan 29 16:09:57 2023
Timers Off: Sun Jan 29 16:23:43 2023

Wall Time:      826.60 seconds

                                                       Time (seconds)
Module                                       User      System        Wall        Calls

--------------------------------------------------------------------------------------

**************************************************************************************
