
Host: jupiter

Timers On : Sun Jan 29 08:53:43 2023
Timers Off: Sun Jan 29 08:54:58 2023

Wall Time:       75.04 seconds

                                                       Time (seconds)
Module                                       User      System        Wall        Calls

--------------------------------------------------------------------------------------

**************************************************************************************

Host: jupiter

Timers On : Sun Jan 29 08:54:59 2023
Timers Off: Sun Jan 29 08:56:08 2023

Wall Time:       69.30 seconds

                                                       Time (seconds)
Module                                       User      System        Wall        Calls

--------------------------------------------------------------------------------------

**************************************************************************************

Host: jupiter

Timers On : Sun Jan 29 08:56:08 2023
Timers Off: Sun Jan 29 08:59:17 2023

Wall Time:      189.06 seconds

                                                       Time (seconds)
Module                                       User      System        Wall        Calls

--------------------------------------------------------------------------------------

**************************************************************************************

Host: jupiter

Timers On : Sun Jan 29 08:59:18 2023
Timers Off: Sun Jan 29 09:02:23 2023

Wall Time:      185.50 seconds

                                                       Time (seconds)
Module                                       User      System        Wall        Calls

--------------------------------------------------------------------------------------

**************************************************************************************

Host: jupiter

Timers On : Sun Jan 29 09:02:23 2023
Timers Off: Sun Jan 29 09:06:02 2023

Wall Time:      218.28 seconds

                                                       Time (seconds)
Module                                       User      System        Wall        Calls

--------------------------------------------------------------------------------------

**************************************************************************************

Host: jupiter

Timers On : Sun Jan 29 09:06:02 2023
Timers Off: Sun Jan 29 09:09:40 2023

Wall Time:      218.41 seconds

                                                       Time (seconds)
Module                                       User      System        Wall        Calls

--------------------------------------------------------------------------------------

**************************************************************************************
