
Host: mediawiki.tifrh.res.in

Timers On : Sun Jan 29 11:02:22 2023
Timers Off: Sun Jan 29 11:03:33 2023

Wall Time:       71.48 seconds

                                                       Time (seconds)
Module                                       User      System        Wall        Calls

--------------------------------------------------------------------------------------

**************************************************************************************

Host: mediawiki.tifrh.res.in

Timers On : Sun Jan 29 11:03:34 2023
Timers Off: Sun Jan 29 11:04:34 2023

Wall Time:       60.00 seconds

                                                       Time (seconds)
Module                                       User      System        Wall        Calls

--------------------------------------------------------------------------------------

**************************************************************************************

Host: mediawiki.tifrh.res.in

Timers On : Sun Jan 29 11:04:34 2023
Timers Off: Sun Jan 29 11:07:35 2023

Wall Time:      180.70 seconds

                                                       Time (seconds)
Module                                       User      System        Wall        Calls

--------------------------------------------------------------------------------------

**************************************************************************************

Host: mediawiki.tifrh.res.in

Timers On : Sun Jan 29 11:07:35 2023
Timers Off: Sun Jan 29 11:10:34 2023

Wall Time:      178.73 seconds

                                                       Time (seconds)
Module                                       User      System        Wall        Calls

--------------------------------------------------------------------------------------

**************************************************************************************

Host: mediawiki.tifrh.res.in

Timers On : Sun Jan 29 11:10:34 2023
Timers Off: Sun Jan 29 11:14:03 2023

Wall Time:      208.73 seconds

                                                       Time (seconds)
Module                                       User      System        Wall        Calls

--------------------------------------------------------------------------------------

**************************************************************************************

Host: mediawiki.tifrh.res.in

Timers On : Sun Jan 29 11:14:03 2023
Timers Off: Sun Jan 29 11:17:27 2023

Wall Time:      203.39 seconds

                                                       Time (seconds)
Module                                       User      System        Wall        Calls

--------------------------------------------------------------------------------------

**************************************************************************************
