
Host: jupiter

Timers On : Sun Jan 29 11:03:03 2023
Timers Off: Sun Jan 29 11:04:19 2023

Wall Time:       76.57 seconds

                                                       Time (seconds)
Module                                       User      System        Wall        Calls

--------------------------------------------------------------------------------------

**************************************************************************************

Host: jupiter

Timers On : Sun Jan 29 11:04:20 2023
Timers Off: Sun Jan 29 11:05:29 2023

Wall Time:       69.72 seconds

                                                       Time (seconds)
Module                                       User      System        Wall        Calls

--------------------------------------------------------------------------------------

**************************************************************************************

Host: jupiter

Timers On : Sun Jan 29 11:05:30 2023
Timers Off: Sun Jan 29 11:08:42 2023

Wall Time:      192.29 seconds

                                                       Time (seconds)
Module                                       User      System        Wall        Calls

--------------------------------------------------------------------------------------

**************************************************************************************

Host: jupiter

Timers On : Sun Jan 29 11:08:42 2023
Timers Off: Sun Jan 29 11:11:50 2023

Wall Time:      188.28 seconds

                                                       Time (seconds)
Module                                       User      System        Wall        Calls

--------------------------------------------------------------------------------------

**************************************************************************************

Host: jupiter

Timers On : Sun Jan 29 11:11:51 2023
Timers Off: Sun Jan 29 11:15:26 2023

Wall Time:      215.03 seconds

                                                       Time (seconds)
Module                                       User      System        Wall        Calls

--------------------------------------------------------------------------------------

**************************************************************************************

Host: jupiter

Timers On : Sun Jan 29 11:15:26 2023
Timers Off: Sun Jan 29 11:19:06 2023

Wall Time:      219.99 seconds

                                                       Time (seconds)
Module                                       User      System        Wall        Calls

--------------------------------------------------------------------------------------

**************************************************************************************
