
Host: mediawiki.tifrh.res.in

Timers On : Sat Dec 31 11:30:24 2022
Timers Off: Sat Dec 31 11:30:25 2022

Wall Time:        0.67 seconds

                                                       Time (seconds)
Module                                       User      System        Wall        Calls

--------------------------------------------------------------------------------------

**************************************************************************************

Host: mediawiki.tifrh.res.in

Timers On : Sat Dec 31 11:30:25 2022
Timers Off: Sat Dec 31 11:30:26 2022

Wall Time:        0.64 seconds

                                                       Time (seconds)
Module                                       User      System        Wall        Calls

--------------------------------------------------------------------------------------

**************************************************************************************

Host: mediawiki.tifrh.res.in

Timers On : Sat Dec 31 11:39:33 2022
Timers Off: Sat Dec 31 11:39:56 2022

Wall Time:       22.80 seconds

                                                       Time (seconds)
Module                                       User      System        Wall        Calls

--------------------------------------------------------------------------------------

**************************************************************************************

Host: mediawiki.tifrh.res.in

Timers On : Sat Dec 31 11:39:56 2022
Timers Off: Sat Dec 31 11:40:11 2022

Wall Time:       14.12 seconds

                                                       Time (seconds)
Module                                       User      System        Wall        Calls

--------------------------------------------------------------------------------------

**************************************************************************************

Host: mediawiki.tifrh.res.in

Timers On : Sat Dec 31 12:06:45 2022
Timers Off: Sat Dec 31 12:07:47 2022

Wall Time:       62.31 seconds

                                                       Time (seconds)
Module                                       User      System        Wall        Calls

--------------------------------------------------------------------------------------

**************************************************************************************

Host: mediawiki.tifrh.res.in

Timers On : Sat Dec 31 12:07:48 2022
Timers Off: Sat Dec 31 12:08:45 2022

Wall Time:       57.60 seconds

                                                       Time (seconds)
Module                                       User      System        Wall        Calls

--------------------------------------------------------------------------------------

**************************************************************************************

Host: mediawiki.tifrh.res.in

Timers On : Sat Dec 31 14:11:56 2022
Timers Off: Sat Dec 31 14:12:57 2022

Wall Time:       60.93 seconds

                                                       Time (seconds)
Module                                       User      System        Wall        Calls

--------------------------------------------------------------------------------------

**************************************************************************************

Host: mediawiki.tifrh.res.in

Timers On : Sat Dec 31 14:12:57 2022
Timers Off: Sat Dec 31 14:13:52 2022

Wall Time:       55.17 seconds

                                                       Time (seconds)
Module                                       User      System        Wall        Calls

--------------------------------------------------------------------------------------

**************************************************************************************

Host: mediawiki.tifrh.res.in

Timers On : Sat Dec 31 14:51:52 2022
Timers Off: Sat Dec 31 14:52:34 2022

Wall Time:       41.26 seconds

                                                       Time (seconds)
Module                                       User      System        Wall        Calls

--------------------------------------------------------------------------------------

**************************************************************************************

Host: mediawiki.tifrh.res.in

Timers On : Sat Dec 31 14:52:34 2022
Timers Off: Sat Dec 31 14:53:15 2022

Wall Time:       40.46 seconds

                                                       Time (seconds)
Module                                       User      System        Wall        Calls

--------------------------------------------------------------------------------------

**************************************************************************************

Host: mediawiki.tifrh.res.in

Timers On : Sat Dec 31 15:31:38 2022
Timers Off: Sat Dec 31 15:32:03 2022

Wall Time:       24.46 seconds

                                                       Time (seconds)
Module                                       User      System        Wall        Calls

--------------------------------------------------------------------------------------

**************************************************************************************

Host: mediawiki.tifrh.res.in

Timers On : Sat Dec 31 15:32:03 2022
Timers Off: Sat Dec 31 15:32:18 2022

Wall Time:       14.39 seconds

                                                       Time (seconds)
Module                                       User      System        Wall        Calls

--------------------------------------------------------------------------------------

**************************************************************************************

Host: mediawiki.tifrh.res.in

Timers On : Tue Jan  3 20:11:04 2023
Timers Off: Tue Jan  3 20:11:26 2023

Wall Time:       22.05 seconds

                                                       Time (seconds)
Module                                       User      System        Wall        Calls

--------------------------------------------------------------------------------------

**************************************************************************************

Host: mediawiki.tifrh.res.in

Timers On : Tue Jan  3 20:11:26 2023
Timers Off: Tue Jan  3 20:11:42 2023

Wall Time:       15.63 seconds

                                                       Time (seconds)
Module                                       User      System        Wall        Calls

--------------------------------------------------------------------------------------

**************************************************************************************

Host: mediawiki.tifrh.res.in

Timers On : Tue Jan  3 20:30:40 2023
Timers Off: Tue Jan  3 20:31:44 2023

Wall Time:       63.53 seconds

                                                       Time (seconds)
Module                                       User      System        Wall        Calls

--------------------------------------------------------------------------------------

**************************************************************************************

Host: mediawiki.tifrh.res.in

Timers On : Tue Jan  3 20:31:44 2023
Timers Off: Tue Jan  3 20:32:43 2023

Wall Time:       59.25 seconds

                                                       Time (seconds)
Module                                       User      System        Wall        Calls

--------------------------------------------------------------------------------------

**************************************************************************************

Host: mediawiki.tifrh.res.in

Timers On : Tue Jan  3 21:07:03 2023
Timers Off: Tue Jan  3 21:07:51 2023

Wall Time:       47.29 seconds

                                                       Time (seconds)
Module                                       User      System        Wall        Calls

--------------------------------------------------------------------------------------

**************************************************************************************

Host: mediawiki.tifrh.res.in

Timers On : Tue Jan  3 21:07:51 2023
Timers Off: Tue Jan  3 21:08:37 2023

Wall Time:       45.72 seconds

                                                       Time (seconds)
Module                                       User      System        Wall        Calls

--------------------------------------------------------------------------------------

**************************************************************************************
