
Host: jupiter

Timers On : Sun Jan 29 09:42:01 2023
Timers Off: Sun Jan 29 09:43:08 2023

Wall Time:       66.66 seconds

                                                       Time (seconds)
Module                                       User      System        Wall        Calls

--------------------------------------------------------------------------------------

**************************************************************************************

Host: jupiter

Timers On : Sun Jan 29 09:43:08 2023
Timers Off: Sun Jan 29 09:44:19 2023

Wall Time:       70.61 seconds

                                                       Time (seconds)
Module                                       User      System        Wall        Calls

--------------------------------------------------------------------------------------

**************************************************************************************

Host: jupiter

Timers On : Sun Jan 29 09:44:19 2023
Timers Off: Sun Jan 29 09:47:34 2023

Wall Time:      194.98 seconds

                                                       Time (seconds)
Module                                       User      System        Wall        Calls

--------------------------------------------------------------------------------------

**************************************************************************************

Host: jupiter

Timers On : Sun Jan 29 09:47:34 2023
Timers Off: Sun Jan 29 09:50:48 2023

Wall Time:      193.37 seconds

                                                       Time (seconds)
Module                                       User      System        Wall        Calls

--------------------------------------------------------------------------------------

**************************************************************************************

Host: jupiter

Timers On : Sun Jan 29 09:50:48 2023
Timers Off: Sun Jan 29 09:54:28 2023

Wall Time:      220.37 seconds

                                                       Time (seconds)
Module                                       User      System        Wall        Calls

--------------------------------------------------------------------------------------

**************************************************************************************

Host: jupiter

Timers On : Sun Jan 29 09:54:28 2023
Timers Off: Sun Jan 29 09:58:06 2023

Wall Time:      217.87 seconds

                                                       Time (seconds)
Module                                       User      System        Wall        Calls

--------------------------------------------------------------------------------------

**************************************************************************************
