
Host: mediawiki.tifrh.res.in

Timers On : Thu Nov  3 19:18:17 2022
Timers Off: Thu Nov  3 19:20:35 2022

Wall Time:      138.61 seconds

                                                       Time (seconds)
Module                                       User      System        Wall        Calls

--------------------------------------------------------------------------------------

**************************************************************************************

Host: mediawiki.tifrh.res.in

Timers On : Thu Nov  3 19:20:36 2022
Timers Off: Thu Nov  3 19:22:48 2022

Wall Time:      132.82 seconds

                                                       Time (seconds)
Module                                       User      System        Wall        Calls

--------------------------------------------------------------------------------------

**************************************************************************************

Host: mediawiki.tifrh.res.in

Timers On : Sat Dec 31 15:58:08 2022
Timers Off: Sat Dec 31 15:58:58 2022

Wall Time:       50.18 seconds

                                                       Time (seconds)
Module                                       User      System        Wall        Calls

--------------------------------------------------------------------------------------

**************************************************************************************

Host: mediawiki.tifrh.res.in

Timers On : Sat Dec 31 15:58:58 2022
Timers Off: Sat Dec 31 15:59:32 2022

Wall Time:       33.91 seconds

                                                       Time (seconds)
Module                                       User      System        Wall        Calls

--------------------------------------------------------------------------------------

**************************************************************************************

Host: mediawiki.tifrh.res.in

Timers On : Sat Dec 31 16:17:50 2022
Timers Off: Sat Dec 31 16:19:47 2022

Wall Time:      116.81 seconds

                                                       Time (seconds)
Module                                       User      System        Wall        Calls

--------------------------------------------------------------------------------------

**************************************************************************************

Host: mediawiki.tifrh.res.in

Timers On : Sat Dec 31 16:19:48 2022
Timers Off: Sat Dec 31 16:21:44 2022

Wall Time:      116.10 seconds

                                                       Time (seconds)
Module                                       User      System        Wall        Calls

--------------------------------------------------------------------------------------

**************************************************************************************

Host: mediawiki.tifrh.res.in

Timers On : Sat Dec 31 21:13:50 2022
Timers Off: Sat Dec 31 21:15:53 2022

Wall Time:      122.53 seconds

                                                       Time (seconds)
Module                                       User      System        Wall        Calls

--------------------------------------------------------------------------------------

**************************************************************************************

Host: mediawiki.tifrh.res.in

Timers On : Sat Dec 31 21:15:53 2022
Timers Off: Sat Dec 31 21:17:48 2022

Wall Time:      115.46 seconds

                                                       Time (seconds)
Module                                       User      System        Wall        Calls

--------------------------------------------------------------------------------------

**************************************************************************************

Host: mediawiki.tifrh.res.in

Timers On : Tue Jan  3 19:34:44 2023
Timers Off: Tue Jan  3 19:34:45 2023

Wall Time:        0.57 seconds

                                                       Time (seconds)
Module                                       User      System        Wall        Calls

--------------------------------------------------------------------------------------

**************************************************************************************

Host: mediawiki.tifrh.res.in

Timers On : Tue Jan  3 19:34:45 2023
Timers Off: Tue Jan  3 19:34:46 2023

Wall Time:        0.48 seconds

                                                       Time (seconds)
Module                                       User      System        Wall        Calls

--------------------------------------------------------------------------------------

**************************************************************************************

Host: mediawiki.tifrh.res.in

Timers On : Tue Jan  3 19:58:07 2023
Timers Off: Tue Jan  3 19:58:54 2023

Wall Time:       46.86 seconds

                                                       Time (seconds)
Module                                       User      System        Wall        Calls

--------------------------------------------------------------------------------------

**************************************************************************************

Host: mediawiki.tifrh.res.in

Timers On : Tue Jan  3 19:58:54 2023
Timers Off: Tue Jan  3 19:59:33 2023

Wall Time:       39.34 seconds

                                                       Time (seconds)
Module                                       User      System        Wall        Calls

--------------------------------------------------------------------------------------

**************************************************************************************

Host: mediawiki.tifrh.res.in

Timers On : Tue Jan  3 22:24:37 2023
Timers Off: Tue Jan  3 22:26:46 2023

Wall Time:      128.98 seconds

                                                       Time (seconds)
Module                                       User      System        Wall        Calls

--------------------------------------------------------------------------------------

**************************************************************************************

Host: mediawiki.tifrh.res.in

Timers On : Tue Jan  3 22:26:46 2023
Timers Off: Tue Jan  3 22:28:51 2023

Wall Time:      124.52 seconds

                                                       Time (seconds)
Module                                       User      System        Wall        Calls

--------------------------------------------------------------------------------------

**************************************************************************************

Host: mediawiki.tifrh.res.in

Timers On : Wed Jan  4 02:02:19 2023
Timers Off: Wed Jan  4 02:04:30 2023

Wall Time:      130.42 seconds

                                                       Time (seconds)
Module                                       User      System        Wall        Calls

--------------------------------------------------------------------------------------

**************************************************************************************

Host: mediawiki.tifrh.res.in

Timers On : Wed Jan  4 02:04:30 2023
Timers Off: Wed Jan  4 02:06:40 2023

Wall Time:      129.82 seconds

                                                       Time (seconds)
Module                                       User      System        Wall        Calls

--------------------------------------------------------------------------------------

**************************************************************************************
