
Host: mediawiki.tifrh.res.in

Timers On : Sun Jan 29 10:05:43 2023
Timers Off: Sun Jan 29 10:06:05 2023

Wall Time:       22.09 seconds

                                                       Time (seconds)
Module                                       User      System        Wall        Calls

--------------------------------------------------------------------------------------

**************************************************************************************

Host: mediawiki.tifrh.res.in

Timers On : Sun Jan 29 10:06:05 2023
Timers Off: Sun Jan 29 10:06:20 2023

Wall Time:       15.03 seconds

                                                       Time (seconds)
Module                                       User      System        Wall        Calls

--------------------------------------------------------------------------------------

**************************************************************************************

Host: mediawiki.tifrh.res.in

Timers On : Sun Jan 29 10:06:20 2023
Timers Off: Sun Jan 29 10:07:24 2023

Wall Time:       63.77 seconds

                                                       Time (seconds)
Module                                       User      System        Wall        Calls

--------------------------------------------------------------------------------------

**************************************************************************************

Host: mediawiki.tifrh.res.in

Timers On : Sun Jan 29 10:07:25 2023
Timers Off: Sun Jan 29 10:08:26 2023

Wall Time:       61.77 seconds

                                                       Time (seconds)
Module                                       User      System        Wall        Calls

--------------------------------------------------------------------------------------

**************************************************************************************

Host: mediawiki.tifrh.res.in

Timers On : Sun Jan 29 10:08:27 2023
Timers Off: Sun Jan 29 10:09:16 2023

Wall Time:       48.85 seconds

                                                       Time (seconds)
Module                                       User      System        Wall        Calls

--------------------------------------------------------------------------------------

**************************************************************************************

Host: mediawiki.tifrh.res.in

Timers On : Sun Jan 29 10:09:16 2023
Timers Off: Sun Jan 29 10:10:04 2023

Wall Time:       48.30 seconds

                                                       Time (seconds)
Module                                       User      System        Wall        Calls

--------------------------------------------------------------------------------------

**************************************************************************************
