
Host: mediawiki.tifrh.res.in

Timers On : Thu Nov  3 15:30:52 2022
Timers Off: Thu Nov  3 15:31:31 2022

Wall Time:       38.67 seconds

                                                       Time (seconds)
Module                                       User      System        Wall        Calls

--------------------------------------------------------------------------------------

**************************************************************************************

Host: mediawiki.tifrh.res.in

Timers On : Thu Nov  3 15:31:31 2022
Timers Off: Thu Nov  3 15:32:10 2022

Wall Time:       39.44 seconds

                                                       Time (seconds)
Module                                       User      System        Wall        Calls

--------------------------------------------------------------------------------------

**************************************************************************************

Host: mediawiki.tifrh.res.in

Timers On : Tue Dec 27 11:07:30 2022
Timers Off: Tue Dec 27 11:07:41 2022

Wall Time:       11.59 seconds

                                                       Time (seconds)
Module                                       User      System        Wall        Calls

--------------------------------------------------------------------------------------

**************************************************************************************

Host: mediawiki.tifrh.res.in

Timers On : Tue Dec 27 11:07:42 2022
Timers Off: Tue Dec 27 11:07:48 2022

Wall Time:        6.51 seconds

                                                       Time (seconds)
Module                                       User      System        Wall        Calls

--------------------------------------------------------------------------------------

**************************************************************************************

Host: mediawiki.tifrh.res.in

Timers On : Sat Dec 31 15:52:49 2022
Timers Off: Sat Dec 31 15:52:59 2022

Wall Time:       10.17 seconds

                                                       Time (seconds)
Module                                       User      System        Wall        Calls

--------------------------------------------------------------------------------------

**************************************************************************************

Host: mediawiki.tifrh.res.in

Timers On : Sat Dec 31 15:52:59 2022
Timers Off: Sat Dec 31 15:53:05 2022

Wall Time:        5.87 seconds

                                                       Time (seconds)
Module                                       User      System        Wall        Calls

--------------------------------------------------------------------------------------

**************************************************************************************

Host: mediawiki.tifrh.res.in

Timers On : Sat Dec 31 16:07:31 2022
Timers Off: Sat Dec 31 16:07:42 2022

Wall Time:       11.10 seconds

                                                       Time (seconds)
Module                                       User      System        Wall        Calls

--------------------------------------------------------------------------------------

**************************************************************************************

Host: mediawiki.tifrh.res.in

Timers On : Sat Dec 31 16:07:42 2022
Timers Off: Sat Dec 31 16:07:53 2022

Wall Time:       10.67 seconds

                                                       Time (seconds)
Module                                       User      System        Wall        Calls

--------------------------------------------------------------------------------------

**************************************************************************************

Host: mediawiki.tifrh.res.in

Timers On : Sat Dec 31 20:59:38 2022
Timers Off: Sat Dec 31 20:59:52 2022

Wall Time:       13.43 seconds

                                                       Time (seconds)
Module                                       User      System        Wall        Calls

--------------------------------------------------------------------------------------

**************************************************************************************

Host: mediawiki.tifrh.res.in

Timers On : Sat Dec 31 20:59:52 2022
Timers Off: Sat Dec 31 21:00:07 2022

Wall Time:       15.08 seconds

                                                       Time (seconds)
Module                                       User      System        Wall        Calls

--------------------------------------------------------------------------------------

**************************************************************************************

Host: mediawiki.tifrh.res.in

Timers On : Tue Jan  3 19:28:03 2023
Timers Off: Tue Jan  3 19:28:03 2023

Wall Time:        0.60 seconds

                                                       Time (seconds)
Module                                       User      System        Wall        Calls

--------------------------------------------------------------------------------------

**************************************************************************************

Host: mediawiki.tifrh.res.in

Timers On : Tue Jan  3 19:28:03 2023
Timers Off: Tue Jan  3 19:28:04 2023

Wall Time:        0.48 seconds

                                                       Time (seconds)
Module                                       User      System        Wall        Calls

--------------------------------------------------------------------------------------

**************************************************************************************

Host: mediawiki.tifrh.res.in

Timers On : Tue Jan  3 19:52:51 2023
Timers Off: Tue Jan  3 19:53:00 2023

Wall Time:        9.19 seconds

                                                       Time (seconds)
Module                                       User      System        Wall        Calls

--------------------------------------------------------------------------------------

**************************************************************************************

Host: mediawiki.tifrh.res.in

Timers On : Tue Jan  3 19:53:01 2023
Timers Off: Tue Jan  3 19:53:07 2023

Wall Time:        6.40 seconds

                                                       Time (seconds)
Module                                       User      System        Wall        Calls

--------------------------------------------------------------------------------------

**************************************************************************************

Host: mediawiki.tifrh.res.in

Timers On : Tue Jan  3 22:09:42 2023
Timers Off: Tue Jan  3 22:09:59 2023

Wall Time:       16.85 seconds

                                                       Time (seconds)
Module                                       User      System        Wall        Calls

--------------------------------------------------------------------------------------

**************************************************************************************

Host: mediawiki.tifrh.res.in

Timers On : Tue Jan  3 22:10:00 2023
Timers Off: Tue Jan  3 22:10:15 2023

Wall Time:       15.62 seconds

                                                       Time (seconds)
Module                                       User      System        Wall        Calls

--------------------------------------------------------------------------------------

**************************************************************************************

Host: mediawiki.tifrh.res.in

Timers On : Wed Jan  4 01:51:00 2023
Timers Off: Wed Jan  4 01:51:12 2023

Wall Time:       11.95 seconds

                                                       Time (seconds)
Module                                       User      System        Wall        Calls

--------------------------------------------------------------------------------------

**************************************************************************************

Host: mediawiki.tifrh.res.in

Timers On : Wed Jan  4 01:51:12 2023
Timers Off: Wed Jan  4 01:51:24 2023

Wall Time:       11.68 seconds

                                                       Time (seconds)
Module                                       User      System        Wall        Calls

--------------------------------------------------------------------------------------

**************************************************************************************
