
Host: mediawiki.tifrh.res.in

Timers On : Mon Jan 16 12:33:45 2023
Timers Off: Mon Jan 16 12:33:51 2023

Wall Time:        5.28 seconds

                                                       Time (seconds)
Module                                       User      System        Wall        Calls

--------------------------------------------------------------------------------------

**************************************************************************************

Host: mediawiki.tifrh.res.in

Timers On : Mon Jan 16 12:33:51 2023
Timers Off: Mon Jan 16 12:33:55 2023

Wall Time:        4.25 seconds

                                                       Time (seconds)
Module                                       User      System        Wall        Calls

--------------------------------------------------------------------------------------

**************************************************************************************

Host: mediawiki.tifrh.res.in

Timers On : Mon Jan 16 13:00:45 2023
Timers Off: Mon Jan 16 13:00:52 2023

Wall Time:        7.20 seconds

                                                       Time (seconds)
Module                                       User      System        Wall        Calls

--------------------------------------------------------------------------------------

**************************************************************************************

Host: mediawiki.tifrh.res.in

Timers On : Mon Jan 16 13:00:52 2023
Timers Off: Mon Jan 16 13:00:59 2023

Wall Time:        7.01 seconds

                                                       Time (seconds)
Module                                       User      System        Wall        Calls

--------------------------------------------------------------------------------------

**************************************************************************************

Host: mediawiki.tifrh.res.in

Timers On : Mon Jan 16 13:34:53 2023
Timers Off: Mon Jan 16 13:35:03 2023

Wall Time:        9.91 seconds

                                                       Time (seconds)
Module                                       User      System        Wall        Calls

--------------------------------------------------------------------------------------

**************************************************************************************

Host: mediawiki.tifrh.res.in

Timers On : Mon Jan 16 13:35:04 2023
Timers Off: Mon Jan 16 13:35:13 2023

Wall Time:        9.33 seconds

                                                       Time (seconds)
Module                                       User      System        Wall        Calls

--------------------------------------------------------------------------------------

**************************************************************************************
