
Host: mediawiki.tifrh.res.in

Timers On : Thu Nov  3 18:58:47 2022
Timers Off: Thu Nov  3 18:59:58 2022

Wall Time:       71.63 seconds

                                                       Time (seconds)
Module                                       User      System        Wall        Calls

--------------------------------------------------------------------------------------

**************************************************************************************

Host: mediawiki.tifrh.res.in

Timers On : Thu Nov  3 18:59:59 2022
Timers Off: Thu Nov  3 19:01:12 2022

Wall Time:       72.95 seconds

                                                       Time (seconds)
Module                                       User      System        Wall        Calls

--------------------------------------------------------------------------------------

**************************************************************************************

Host: mediawiki.tifrh.res.in

Timers On : Sat Dec 31 15:55:10 2022
Timers Off: Sat Dec 31 15:55:32 2022

Wall Time:       22.37 seconds

                                                       Time (seconds)
Module                                       User      System        Wall        Calls

--------------------------------------------------------------------------------------

**************************************************************************************

Host: mediawiki.tifrh.res.in

Timers On : Sat Dec 31 15:55:33 2022
Timers Off: Sat Dec 31 15:55:46 2022

Wall Time:       13.85 seconds

                                                       Time (seconds)
Module                                       User      System        Wall        Calls

--------------------------------------------------------------------------------------

**************************************************************************************

Host: mediawiki.tifrh.res.in

Timers On : Sat Dec 31 16:11:47 2022
Timers Off: Sat Dec 31 16:12:27 2022

Wall Time:       40.20 seconds

                                                       Time (seconds)
Module                                       User      System        Wall        Calls

--------------------------------------------------------------------------------------

**************************************************************************************

Host: mediawiki.tifrh.res.in

Timers On : Sat Dec 31 16:12:27 2022
Timers Off: Sat Dec 31 16:13:07 2022

Wall Time:       40.04 seconds

                                                       Time (seconds)
Module                                       User      System        Wall        Calls

--------------------------------------------------------------------------------------

**************************************************************************************

Host: mediawiki.tifrh.res.in

Timers On : Sat Dec 31 21:05:34 2022
Timers Off: Sat Dec 31 21:06:34 2022

Wall Time:       59.70 seconds

                                                       Time (seconds)
Module                                       User      System        Wall        Calls

--------------------------------------------------------------------------------------

**************************************************************************************

Host: mediawiki.tifrh.res.in

Timers On : Sat Dec 31 21:06:34 2022
Timers Off: Sat Dec 31 21:07:29 2022

Wall Time:       55.04 seconds

                                                       Time (seconds)
Module                                       User      System        Wall        Calls

--------------------------------------------------------------------------------------

**************************************************************************************

Host: mediawiki.tifrh.res.in

Timers On : Tue Jan  3 19:30:20 2023
Timers Off: Tue Jan  3 19:30:20 2023

Wall Time:        0.63 seconds

                                                       Time (seconds)
Module                                       User      System        Wall        Calls

--------------------------------------------------------------------------------------

**************************************************************************************

Host: mediawiki.tifrh.res.in

Timers On : Tue Jan  3 19:30:21 2023
Timers Off: Tue Jan  3 19:30:21 2023

Wall Time:        0.63 seconds

                                                       Time (seconds)
Module                                       User      System        Wall        Calls

--------------------------------------------------------------------------------------

**************************************************************************************

Host: mediawiki.tifrh.res.in

Timers On : Tue Jan  3 19:55:08 2023
Timers Off: Tue Jan  3 19:55:30 2023

Wall Time:       21.29 seconds

                                                       Time (seconds)
Module                                       User      System        Wall        Calls

--------------------------------------------------------------------------------------

**************************************************************************************

Host: mediawiki.tifrh.res.in

Timers On : Tue Jan  3 19:55:30 2023
Timers Off: Tue Jan  3 19:55:45 2023

Wall Time:       14.91 seconds

                                                       Time (seconds)
Module                                       User      System        Wall        Calls

--------------------------------------------------------------------------------------

**************************************************************************************

Host: mediawiki.tifrh.res.in

Timers On : Tue Jan  3 22:15:55 2023
Timers Off: Tue Jan  3 22:16:57 2023

Wall Time:       61.76 seconds

                                                       Time (seconds)
Module                                       User      System        Wall        Calls

--------------------------------------------------------------------------------------

**************************************************************************************

Host: mediawiki.tifrh.res.in

Timers On : Tue Jan  3 22:16:58 2023
Timers Off: Tue Jan  3 22:17:57 2023

Wall Time:       58.92 seconds

                                                       Time (seconds)
Module                                       User      System        Wall        Calls

--------------------------------------------------------------------------------------

**************************************************************************************

Host: mediawiki.tifrh.res.in

Timers On : Wed Jan  4 01:55:40 2023
Timers Off: Wed Jan  4 01:56:25 2023

Wall Time:       44.92 seconds

                                                       Time (seconds)
Module                                       User      System        Wall        Calls

--------------------------------------------------------------------------------------

**************************************************************************************

Host: mediawiki.tifrh.res.in

Timers On : Wed Jan  4 01:56:25 2023
Timers Off: Wed Jan  4 01:57:11 2023

Wall Time:       45.40 seconds

                                                       Time (seconds)
Module                                       User      System        Wall        Calls

--------------------------------------------------------------------------------------

**************************************************************************************
